# vtk DataFile Version 2.0
VTK from Matlab
ASCII

DATASET UNSTRUCTURED_GRID
POINTS 200 float
0.000 0.000 -0.025
0.202 -0.000 -0.017
0.202 0.100 -0.017
0.000 0.100 -0.025
0.000 0.000 0.025
0.198 0.000 0.032
0.198 0.100 0.032
0.000 0.100 0.025
0.202 -0.000 -0.017
0.402 -0.000 0.004
0.402 0.100 0.004
0.202 0.100 -0.017
0.198 0.000 0.032
0.395 0.000 0.053
0.395 0.100 0.053
0.198 0.100 0.032
0.402 -0.000 0.004
0.601 -0.000 0.034
0.601 0.100 0.034
0.402 0.100 0.004
0.395 0.000 0.053
0.592 0.000 0.084
0.592 0.100 0.084
0.395 0.100 0.053
0.601 -0.000 0.034
0.798 -0.000 0.072
0.798 0.100 0.072
0.601 0.100 0.034
0.592 0.000 0.084
0.788 0.000 0.121
0.788 0.100 0.121
0.592 0.100 0.084
0.798 -0.000 0.072
0.994 -0.000 0.112
0.994 0.100 0.112
0.798 0.100 0.072
0.788 0.000 0.121
0.984 0.000 0.161
0.984 0.100 0.161
0.788 0.100 0.121
0.000 0.100 -0.025
0.202 0.100 -0.017
0.202 0.200 -0.017
0.000 0.200 -0.025
0.000 0.100 0.025
0.198 0.100 0.032
0.198 0.200 0.032
0.000 0.200 0.025
0.202 0.100 -0.017
0.402 0.100 0.004
0.402 0.200 0.004
0.202 0.200 -0.017
0.198 0.100 0.032
0.395 0.100 0.053
0.395 0.200 0.053
0.198 0.200 0.032
0.402 0.100 0.004
0.601 0.100 0.034
0.601 0.200 0.034
0.402 0.200 0.004
0.395 0.100 0.053
0.592 0.100 0.084
0.592 0.200 0.084
0.395 0.200 0.053
0.601 0.100 0.034
0.798 0.100 0.072
0.798 0.200 0.072
0.601 0.200 0.034
0.592 0.100 0.084
0.788 0.100 0.121
0.788 0.200 0.121
0.592 0.200 0.084
0.798 0.100 0.072
0.994 0.100 0.112
0.994 0.200 0.112
0.798 0.200 0.072
0.788 0.100 0.121
0.984 0.100 0.161
0.984 0.200 0.161
0.788 0.200 0.121
0.000 0.200 -0.025
0.202 0.200 -0.017
0.202 0.300 -0.017
0.000 0.300 -0.025
0.000 0.200 0.025
0.198 0.200 0.032
0.198 0.300 0.032
0.000 0.300 0.025
0.202 0.200 -0.017
0.402 0.200 0.004
0.402 0.300 0.004
0.202 0.300 -0.017
0.198 0.200 0.032
0.395 0.200 0.053
0.395 0.300 0.053
0.198 0.300 0.032
0.402 0.200 0.004
0.601 0.200 0.034
0.601 0.300 0.034
0.402 0.300 0.004
0.395 0.200 0.053
0.592 0.200 0.084
0.592 0.300 0.084
0.395 0.300 0.053
0.601 0.200 0.034
0.798 0.200 0.072
0.798 0.300 0.072
0.601 0.300 0.034
0.592 0.200 0.084
0.788 0.200 0.121
0.788 0.300 0.121
0.592 0.300 0.084
0.798 0.200 0.072
0.994 0.200 0.112
0.994 0.300 0.112
0.798 0.300 0.072
0.788 0.200 0.121
0.984 0.200 0.161
0.984 0.300 0.161
0.788 0.300 0.121
0.000 0.300 -0.025
0.202 0.300 -0.017
0.202 0.400 -0.017
0.000 0.400 -0.025
0.000 0.300 0.025
0.198 0.300 0.032
0.198 0.400 0.032
0.000 0.400 0.025
0.202 0.300 -0.017
0.402 0.300 0.004
0.402 0.400 0.004
0.202 0.400 -0.017
0.198 0.300 0.032
0.395 0.300 0.053
0.395 0.400 0.053
0.198 0.400 0.032
0.402 0.300 0.004
0.601 0.300 0.034
0.601 0.400 0.034
0.402 0.400 0.004
0.395 0.300 0.053
0.592 0.300 0.084
0.592 0.400 0.084
0.395 0.400 0.053
0.601 0.300 0.034
0.798 0.300 0.072
0.798 0.400 0.072
0.601 0.400 0.034
0.592 0.300 0.084
0.788 0.300 0.121
0.788 0.400 0.121
0.592 0.400 0.084
0.798 0.300 0.072
0.994 0.300 0.112
0.994 0.400 0.112
0.798 0.400 0.072
0.788 0.300 0.121
0.984 0.300 0.161
0.984 0.400 0.161
0.788 0.400 0.121
0.000 0.400 -0.025
0.202 0.400 -0.017
0.202 0.500 -0.017
0.000 0.500 -0.025
0.000 0.400 0.025
0.198 0.400 0.032
0.198 0.500 0.032
0.000 0.500 0.025
0.202 0.400 -0.017
0.402 0.400 0.004
0.402 0.500 0.004
0.202 0.500 -0.017
0.198 0.400 0.032
0.395 0.400 0.053
0.395 0.500 0.053
0.198 0.500 0.032
0.402 0.400 0.004
0.601 0.400 0.034
0.601 0.500 0.034
0.402 0.500 0.004
0.395 0.400 0.053
0.592 0.400 0.084
0.592 0.500 0.084
0.395 0.500 0.053
0.601 0.400 0.034
0.798 0.400 0.072
0.798 0.500 0.072
0.601 0.500 0.034
0.592 0.400 0.084
0.788 0.400 0.121
0.788 0.500 0.121
0.592 0.500 0.084
0.798 0.400 0.072
0.994 0.400 0.112
0.994 0.500 0.112
0.798 0.500 0.072
0.788 0.400 0.121
0.984 0.400 0.161
0.984 0.500 0.161
0.788 0.500 0.121

CELLS 25 225
8 0 1 2 3 4 5 6 7
8 8 9 10 11 12 13 14 15
8 16 17 18 19 20 21 22 23
8 24 25 26 27 28 29 30 31
8 32 33 34 35 36 37 38 39
8 40 41 42 43 44 45 46 47
8 48 49 50 51 52 53 54 55
8 56 57 58 59 60 61 62 63
8 64 65 66 67 68 69 70 71
8 72 73 74 75 76 77 78 79
8 80 81 82 83 84 85 86 87
8 88 89 90 91 92 93 94 95
8 96 97 98 99 100 101 102 103
8 104 105 106 107 108 109 110 111
8 112 113 114 115 116 117 118 119
8 120 121 122 123 124 125 126 127
8 128 129 130 131 132 133 134 135
8 136 137 138 139 140 141 142 143
8 144 145 146 147 148 149 150 151
8 152 153 154 155 156 157 158 159
8 160 161 162 163 164 165 166 167
8 168 169 170 171 172 173 174 175
8 176 177 178 179 180 181 182 183
8 184 185 186 187 188 189 190 191
8 192 193 194 195 196 197 198 199

CELL_TYPES 25
12
12
12
12
12
12
12
12
12
12
12
12
12
12
12
12
12
12
12
12
12
12
12
12
12

POINT_DATA 200
SCALARS ux float
LOOKUP_TABLE default
0.0000
0.0017
0.0017
0.0000
0.0000
-0.0021
-0.0021
0.0000
0.0017
0.0020
0.0020
0.0017
-0.0021
-0.0046
-0.0046
-0.0021
0.0020
0.0007
0.0007
0.0020
-0.0046
-0.0080
-0.0080
-0.0046
0.0007
-0.0022
-0.0022
0.0007
-0.0080
-0.0121
-0.0121
-0.0080
-0.0022
-0.0061
-0.0061
-0.0022
-0.0121
-0.0165
-0.0164
-0.0121
0.0000
0.0017
0.0017
0.0000
0.0000
-0.0021
-0.0021
0.0000
0.0017
0.0020
0.0020
0.0017
-0.0021
-0.0046
-0.0046
-0.0021
0.0020
0.0007
0.0007
0.0020
-0.0046
-0.0080
-0.0080
-0.0046
0.0007
-0.0022
-0.0022
0.0007
-0.0080
-0.0121
-0.0121
-0.0080
-0.0022
-0.0061
-0.0061
-0.0022
-0.0121
-0.0164
-0.0164
-0.0121
0.0000
0.0017
0.0017
0.0000
0.0000
-0.0021
-0.0021
0.0000
0.0017
0.0020
0.0020
0.0017
-0.0021
-0.0046
-0.0046
-0.0021
0.0020
0.0007
0.0007
0.0020
-0.0046
-0.0080
-0.0080
-0.0046
0.0007
-0.0022
-0.0022
0.0007
-0.0080
-0.0121
-0.0121
-0.0080
-0.0022
-0.0061
-0.0061
-0.0022
-0.0121
-0.0164
-0.0164
-0.0121
0.0000
0.0017
0.0017
0.0000
0.0000
-0.0021
-0.0021
0.0000
0.0017
0.0020
0.0020
0.0017
-0.0021
-0.0046
-0.0046
-0.0021
0.0020
0.0007
0.0007
0.0020
-0.0046
-0.0080
-0.0080
-0.0046
0.0007
-0.0022
-0.0022
0.0007
-0.0080
-0.0121
-0.0121
-0.0080
-0.0022
-0.0061
-0.0061
-0.0022
-0.0121
-0.0164
-0.0164
-0.0121
0.0000
0.0017
0.0017
0.0000
0.0000
-0.0021
-0.0021
0.0000
0.0017
0.0020
0.0020
0.0017
-0.0021
-0.0046
-0.0046
-0.0021
0.0020
0.0007
0.0007
0.0020
-0.0046
-0.0080
-0.0080
-0.0046
0.0007
-0.0022
-0.0022
0.0007
-0.0080
-0.0121
-0.0121
-0.0080
-0.0022
-0.0061
-0.0061
-0.0022
-0.0121
-0.0164
-0.0165
-0.0121

SCALARS uy float
LOOKUP_TABLE default
0.0000
-0.0000
-0.0000
0.0000
0.0000
0.0000
0.0000
0.0000
-0.0000
-0.0000
-0.0000
-0.0000
0.0000
0.0000
0.0000
0.0000
-0.0000
-0.0000
-0.0000
-0.0000
0.0000
0.0000
0.0000
0.0000
-0.0000
-0.0000
-0.0000
-0.0000
0.0000
0.0000
0.0000
0.0000
-0.0000
-0.0000
-0.0000
-0.0000
0.0000
0.0000
0.0000
0.0000
0.0000
-0.0000
-0.0000
0.0000
0.0000
0.0000
0.0000
0.0000
-0.0000
-0.0000
-0.0000
-0.0000
0.0000
0.0000
0.0000
0.0000
-0.0000
-0.0000
-0.0000
-0.0000
0.0000
0.0000
0.0000
0.0000
-0.0000
-0.0000
-0.0000
-0.0000
0.0000
0.0000
0.0000
0.0000
-0.0000
-0.0000
-0.0000
-0.0000
0.0000
0.0000
0.0000
0.0000
0.0000
-0.0000
0.0000
0.0000
0.0000
0.0000
-0.0000
0.0000
-0.0000
-0.0000
0.0000
0.0000
0.0000
0.0000
-0.0000
-0.0000
-0.0000
-0.0000
0.0000
0.0000
0.0000
0.0000
-0.0000
-0.0000
-0.0000
-0.0000
0.0000
0.0000
0.0000
0.0000
-0.0000
-0.0000
-0.0000
-0.0000
0.0000
0.0000
0.0000
0.0000
-0.0000
-0.0000
0.0000
0.0000
0.0000
0.0000
0.0000
-0.0000
-0.0000
0.0000
0.0000
0.0000
0.0000
0.0000
-0.0000
-0.0000
-0.0000
-0.0000
0.0000
0.0000
0.0000
0.0000
-0.0000
-0.0000
-0.0000
-0.0000
0.0000
0.0000
0.0000
0.0000
-0.0000
-0.0000
-0.0000
-0.0000
0.0000
0.0000
0.0000
0.0000
-0.0000
-0.0000
-0.0000
-0.0000
0.0000
0.0000
0.0000
0.0000
0.0000
-0.0000
-0.0000
0.0000
0.0000
0.0000
0.0000
0.0000
-0.0000
-0.0000
-0.0000
-0.0000
0.0000
0.0000
0.0000
0.0000
-0.0000
-0.0000
-0.0000
-0.0000
0.0000
0.0000
0.0000
0.0000
-0.0000
-0.0000
-0.0000
-0.0000
0.0000
0.0000
0.0000
0.0000
-0.0000
-0.0000
-0.0000
-0.0000

SCALARS uz float
LOOKUP_TABLE default
0.0000
0.0076
0.0076
0.0000
-0.0000
0.0074
0.0074
-0.0000
0.0076
0.0285
0.0285
0.0076
0.0074
0.0281
0.0281
0.0074
0.0285
0.0593
0.0593
0.0285
0.0281
0.0586
0.0586
0.0281
0.0593
0.0967
0.0966
0.0593
0.0586
0.0957
0.0957
0.0586
0.0967
0.1372
0.1371
0.0966
0.0957
0.1361
0.1361
0.0957
0.0000
0.0076
0.0076
0.0000
-0.0000
0.0074
0.0074
-0.0000
0.0076
0.0285
0.0285
0.0076
0.0074
0.0281
0.0281
0.0074
0.0285
0.0593
0.0593
0.0285
0.0281
0.0586
0.0586
0.0281
0.0593
0.0966
0.0966
0.0593
0.0586
0.0957
0.0956
0.0586
0.0966
0.1371
0.1371
0.0966
0.0957
0.1361
0.1360
0.0956
0.0000
0.0076
0.0076
0.0000
-0.0000
0.0074
0.0074
-0.0000
0.0076
0.0285
0.0285
0.0076
0.0074
0.0281
0.0281
0.0074
0.0285
0.0593
0.0593
0.0285
0.0281
0.0586
0.0586
0.0281
0.0593
0.0966
0.0966
0.0593
0.0586
0.0956
0.0956
0.0586
0.0966
0.1371
0.1371
0.0966
0.0956
0.1360
0.1360
0.0956
0.0000
0.0076
0.0076
0.0000
-0.0000
0.0074
0.0074
-0.0000
0.0076
0.0285
0.0285
0.0076
0.0074
0.0281
0.0281
0.0074
0.0285
0.0593
0.0593
0.0285
0.0281
0.0586
0.0586
0.0281
0.0593
0.0966
0.0966
0.0593
0.0586
0.0956
0.0957
0.0586
0.0966
0.1371
0.1371
0.0966
0.0956
0.1360
0.1361
0.0957
0.0000
0.0076
0.0076
0.0000
-0.0000
0.0074
0.0074
-0.0000
0.0076
0.0285
0.0285
0.0076
0.0074
0.0281
0.0281
0.0074
0.0285
0.0593
0.0593
0.0285
0.0281
0.0586
0.0586
0.0281
0.0593
0.0966
0.0967
0.0593
0.0586
0.0957
0.0957
0.0586
0.0966
0.1371
0.1372
0.0967
0.0957
0.1361
0.1361
0.0957

SCALARS gamma float
LOOKUP_TABLE default
0.9999
1.0000
1.0000
0.9999
1.0000
1.0000
1.0000
1.0000
1.0000
1.0000
1.0000
1.0000
1.0000
1.0000
1.0000
1.0000
1.0000
1.0000
1.0000
1.0000
1.0000
1.0000
1.0000
1.0000
1.0000
1.0000
1.0000
1.0000
1.0000
1.0000
1.0000
1.0000
1.0000
1.0001
1.0000
1.0000
1.0000
0.9999
0.9999
1.0000
0.9999
1.0000
1.0000
0.9999
1.0000
1.0000
1.0000
1.0000
1.0000
1.0000
1.0000
1.0000
1.0000
1.0000
1.0000
1.0000
1.0000
1.0000
1.0000
1.0000
1.0000
1.0000
1.0000
1.0000
1.0000
1.0000
1.0000
1.0000
1.0000
1.0000
1.0000
1.0000
1.0000
1.0000
1.0000
1.0000
1.0000
0.9999
1.0000
1.0000
0.9999
1.0000
1.0000
0.9999
1.0000
1.0000
1.0000
1.0000
1.0000
1.0000
1.0000
1.0000
1.0000
1.0000
1.0000
1.0000
1.0000
1.0000
1.0000
1.0000
1.0000
1.0000
1.0000
1.0000
1.0000
1.0000
1.0000
1.0000
1.0000
1.0000
1.0000
1.0000
1.0000
1.0000
1.0000
1.0000
1.0000
1.0000
1.0000
1.0000
0.9999
1.0000
1.0000
0.9999
1.0000
1.0000
1.0000
1.0000
1.0000
1.0000
1.0000
1.0000
1.0000
1.0000
1.0000
1.0000
1.0000
1.0000
1.0000
1.0000
1.0000
1.0000
1.0000
1.0000
1.0000
1.0000
1.0000
1.0000
1.0000
1.0000
1.0000
1.0000
1.0000
1.0000
1.0000
1.0000
1.0000
1.0000
0.9999
1.0000
0.9999
1.0000
1.0000
0.9999
1.0000
1.0000
1.0000
1.0000
1.0000
1.0000
1.0000
1.0000
1.0000
1.0000
1.0000
1.0000
1.0000
1.0000
1.0000
1.0000
1.0000
1.0000
1.0000
1.0000
1.0000
1.0000
1.0000
1.0000
1.0000
1.0000
1.0000
1.0000
1.0000
1.0000
1.0001
1.0000
1.0000
0.9999
0.9999
1.0000

SCALARS SigmaF11 float
LOOKUP_TABLE default
100983.1139
100699.5933
100699.5977
100983.0008
99113.1026
98834.7703
98834.9968
99113.2136
100472.4189
99864.1379
99864.4141
100472.3956
99023.6519
98424.1287
98424.6927
99023.9213
99643.7363
99004.5817
99005.4188
99643.8169
98615.9710
97983.4382
97985.0488
98616.8368
98791.3576
98326.5211
98328.5734
98791.6201
98177.7400
97715.8443
97719.9331
98180.0597
98119.5261
97949.6493
97953.6614
98120.7771
97912.3201
97742.8710
97751.4635
97918.1696
100983.0008
100699.5977
100699.5820
100982.9147
99113.2136
98834.9968
98835.1663
99113.3141
100472.3956
99864.4141
99864.5805
100472.3724
99023.9213
98424.6927
98425.0609
99024.1034
99643.8169
99005.4188
99005.8459
99643.7060
98616.8368
97985.0488
97986.2022
98617.4630
98791.6201
98328.5734
98329.6590
98791.7673
98180.0597
97719.9331
97722.4402
98181.6431
98120.7771
97953.6614
97956.3253
98121.5377
97918.1696
97751.4635
97756.1387
97920.9493
100982.9147
100699.5820
100699.5820
100982.9147
99113.3141
98835.1663
98835.1663
99113.3141
100472.3724
99864.5805
99864.5805
100472.3724
99024.1034
98425.0609
98425.0609
99024.1034
99643.7060
99005.8459
99005.8459
99643.7060
98617.4630
97986.2022
97986.2022
98617.4630
98791.7673
98329.6590
98329.6590
98791.7673
98181.6431
97722.4402
97722.4402
98181.6431
98121.5377
97956.3253
97956.3253
98121.5377
97920.9493
97756.1387
97756.1387
97920.9493
100982.9147
100699.5820
100699.5977
100983.0008
99113.3141
98835.1663
98834.9968
99113.2136
100472.3724
99864.5805
99864.4141
100472.3956
99024.1034
98425.0609
98424.6927
99023.9213
99643.7060
99005.8459
99005.4188
99643.8169
98617.4630
97986.2022
97985.0488
98616.8368
98791.7673
98329.6590
98328.5734
98791.6201
98181.6431
97722.4402
97719.9331
98180.0597
98121.5377
97956.3253
97953.6614
98120.7771
97920.9493
97756.1387
97751.4635
97918.1696
100983.0008
100699.5977
100699.5933
100983.1139
99113.2136
98834.9968
98834.7703
99113.1026
100472.3956
99864.4141
99864.1379
100472.4189
99023.9213
98424.6927
98424.1287
99023.6519
99643.8169
99005.4188
99004.5817
99643.7363
98616.8368
97985.0488
97983.4382
98615.9710
98791.6201
98328.5734
98326.5211
98791.3576
98180.0597
97719.9331
97715.8443
98177.7400
98120.7771
97953.6614
97949.6493
98119.5261
97918.1696
97751.4635
97742.8710
97912.3201

SCALARS SigmaF12 float
LOOKUP_TABLE default
0.0000
-0.1194
-0.1022
0.0000
0.0000
0.3287
0.3459
0.0000
-0.1194
0.1623
0.1207
-0.1022
0.3287
1.1926
1.1509
0.3459
0.1623
1.2809
0.8384
0.1207
1.1926
3.8718
3.4293
1.1509
1.2809
3.9188
2.8382
0.8384
3.8718
10.6053
9.5249
3.4293
3.9188
10.3256
6.9766
2.8382
10.6053
26.1906
22.8437
9.5249
0.0000
-0.0674
-0.1384
0.0000
0.0000
0.3060
0.2350
0.0000
-0.0674
0.2359
-0.1565
-0.1384
0.3060
1.0174
0.6250
0.2350
0.2359
1.0032
-0.2927
-0.1565
1.0174
3.2499
1.9541
0.6250
1.0032
3.4632
-0.2868
-0.2927
3.2499
8.5687
4.8192
1.9541
3.4632
8.9167
1.1110
-0.2868
8.5687
18.0519
10.2486
4.8192
0.0000
0.0474
-0.0474
0.0000
0.0000
0.0474
-0.0474
0.0000
0.0474
0.2344
-0.2344
-0.0474
0.0474
0.2344
-0.2344
-0.0474
0.2344
0.8254
-0.8254
-0.2344
0.2344
0.8254
-0.8254
-0.2344
0.8254
2.2073
-2.2073
-0.8254
0.8254
2.2070
-2.2070
-0.8254
2.2073
4.6419
-4.6419
-2.2073
2.2070
4.6407
-4.6407
-2.2070
0.0000
0.1384
0.0674
0.0000
0.0000
-0.2350
-0.3060
0.0000
0.1384
0.1565
-0.2359
0.0674
-0.2350
-0.6250
-1.0174
-0.3060
0.1565
0.2927
-1.0032
-0.2359
-0.6250
-1.9541
-3.2499
-1.0174
0.2927
0.2868
-3.4632
-1.0032
-1.9541
-4.8192
-8.5687
-3.2499
0.2868
-1.1110
-8.9167
-3.4632
-4.8192
-10.2486
-18.0519
-8.5687
0.0000
0.1022
0.1194
0.0000
0.0000
-0.3459
-0.3287
0.0000
0.1022
-0.1207
-0.1623
0.1194
-0.3459
-1.1509
-1.1926
-0.3287
-0.1207
-0.8384
-1.2809
-0.1623
-1.1509
-3.4293
-3.8718
-1.1926
-0.8384
-2.8382
-3.9188
-1.2809
-3.4293
-9.5249
-10.6053
-3.8718
-2.8382
-6.9766
-10.3256
-3.9188
-9.5249
-22.8437
-26.1906
-10.6053

SCALARS SigmaF13 float
LOOKUP_TABLE default
0.0000
-7479.9904
-7479.0949
0.0000
0.0000
-7480.1712
-7479.2743
0.0000
-7479.9904
-13262.4943
-13260.4300
-7479.0949
-7480.1712
-13262.5668
-13260.5102
-7479.2743
-13262.4943
-17362.1880
-17356.9729
-13260.4300
-13262.5668
-17362.0616
-17356.9131
-13260.5102
-17362.1880
-19811.6529
-19798.0512
-17356.9729
-17362.0616
-19810.5506
-19797.4060
-17356.9131
-19811.6529
-20642.5533
-20609.3938
-19798.0512
-19810.5506
-20635.6226
-20605.3177
-19797.4060
0.0000
-7479.0949
-7478.3483
0.0000
0.0000
-7479.2743
-7478.5272
0.0000
-7479.0949
-13260.4300
-13258.8665
-7478.3483
-7479.2743
-13260.5102
-13258.9478
-7478.5272
-13260.4300
-17356.9729
-17352.4743
-13258.8665
-13260.5102
-17356.9131
-17352.4245
-13258.9478
-17356.9729
-19798.0512
-19787.8051
-17352.4743
-17356.9131
-19797.4060
-19787.2292
-17352.4245
-19798.0512
-20609.3938
-20590.9053
-19787.8051
-19797.4060
-20605.3177
-20587.2608
-19787.2292
0.0000
-7478.3483
-7478.3483
0.0000
0.0000
-7478.5272
-7478.5272
0.0000
-7478.3483
-13258.8665
-13258.8665
-7478.3483
-7478.5272
-13258.9478
-13258.9478
-7478.5272
-13258.8665
-17352.4743
-17352.4743
-13258.8665
-13258.9478
-17352.4245
-17352.4245
-13258.9478
-17352.4743
-19787.8051
-19787.8051
-17352.4743
-17352.4245
-19787.2292
-19787.2292
-17352.4245
-19787.8051
-20590.9053
-20590.9053
-19787.8051
-19787.2292
-20587.2608
-20587.2608
-19787.2292
0.0000
-7478.3483
-7479.0949
0.0000
0.0000
-7478.5272
-7479.2743
0.0000
-7478.3483
-13258.8665
-13260.4300
-7479.0949
-7478.5272
-13258.9478
-13260.5102
-7479.2743
-13258.8665
-17352.4743
-17356.9729
-13260.4300
-13258.9478
-17352.4245
-17356.9131
-13260.5102
-17352.4743
-19787.8051
-19798.0512
-17356.9729
-17352.4245
-19787.2292
-19797.4060
-17356.9131
-19787.8051
-20590.9053
-20609.3938
-19798.0512
-19787.2292
-20587.2608
-20605.3177
-19797.4060
0.0000
-7479.0949
-7479.9904
0.0000
0.0000
-7479.2743
-7480.1712
0.0000
-7479.0949
-13260.4300
-13262.4943
-7479.9904
-7479.2743
-13260.5102
-13262.5668
-7480.1712
-13260.4300
-17356.9729
-17362.1880
-13262.4943
-13260.5102
-17356.9131
-17362.0616
-13262.5668
-17356.9729
-19798.0512
-19811.6529
-17362.1880
-17356.9131
-19797.4060
-19810.5506
-17362.0616
-19798.0512
-20609.3938
-20642.5533
-19811.6529
-19797.4060
-20605.3177
-20635.6226
-19810.5506

SCALARS SigmaF21 float
LOOKUP_TABLE default
-0.1390
-0.1545
-0.1219
-0.1044
0.1669
0.1505
0.1142
0.1324
-0.4330
-0.4478
-0.3855
-0.3716
0.4351
0.4178
0.3582
0.3741
-1.1452
-1.1814
-0.9446
-0.9023
1.1165
1.0764
0.8348
0.8803
-2.7005
-2.4420
-2.5416
-2.5455
2.4195
2.6743
2.4271
2.4265
-9.5687
-5.8018
-3.5168
-4.8574
7.5571
11.3226
5.9533
4.6136
-0.1044
-0.1219
-0.0447
-0.0365
0.1324
0.1142
0.0406
0.0489
-0.3716
-0.3855
-0.1420
-0.1360
0.3741
0.3582
0.1304
0.1371
-0.9023
-0.9446
-0.3839
-0.3684
0.8803
0.8348
0.3414
0.3580
-2.5455
-2.5416
-0.9197
-0.9497
2.4265
2.4271
0.9083
0.8796
-4.8574
-3.5168
-1.2946
-1.6016
4.6136
5.9533
1.9513
1.6446
-0.0365
-0.0447
0.0447
0.0365
0.0489
0.0406
-0.0406
-0.0489
-0.1360
-0.1420
0.1420
0.1360
0.1371
0.1304
-0.1304
-0.1371
-0.3684
-0.3839
0.3839
0.3684
0.3580
0.3414
-0.3414
-0.3580
-0.9497
-0.9197
0.9197
0.9497
0.8796
0.9083
-0.9083
-0.8796
-1.6016
-1.2946
1.2946
1.6016
1.6446
1.9513
-1.9513
-1.6446
0.0365
0.0447
0.1219
0.1044
-0.0489
-0.0406
-0.1142
-0.1324
0.1360
0.1420
0.3855
0.3716
-0.1371
-0.1304
-0.3582
-0.3741
0.3684
0.3839
0.9446
0.9023
-0.3580
-0.3414
-0.8348
-0.8803
0.9497
0.9197
2.5416
2.5455
-0.8796
-0.9083
-2.4271
-2.4265
1.6016
1.2946
3.5168
4.8574
-1.6446
-1.9513
-5.9533
-4.6136
0.1044
0.1219
0.1545
0.1390
-0.1324
-0.1142
-0.1505
-0.1669
0.3716
0.3855
0.4478
0.4330
-0.3741
-0.3582
-0.4178
-0.4351
0.9023
0.9446
1.1814
1.1452
-0.8803
-0.8348
-1.0764
-1.1165
2.5455
2.5416
2.4420
2.7005
-2.4265
-2.4271
-2.6743
-2.4195
4.8574
3.5168
5.8018
9.5687
-4.6136
-5.9533
-11.3226
-7.5571

SCALARS SigmaF22 float
LOOKUP_TABLE default
100000.0000
100000.0690
100000.0658
100000.0000
100000.0000
99999.9306
99999.9275
100000.0000
100000.0690
100000.1886
100000.1939
100000.0658
99999.9306
99999.8058
99999.8110
99999.9275
100000.1886
100000.6432
100000.6992
100000.1939
99999.8058
99999.3023
99999.3583
99999.8110
100000.6432
100000.6299
100000.8232
100000.6992
99999.3023
99998.9933
99999.1866
99999.3583
100000.6299
100007.9100
100007.5355
100000.8232
99998.9933
99990.9638
99990.5894
99999.1866
100000.0000
100000.1473
100000.1432
100000.0000
100000.0000
99999.8447
99999.8407
100000.0000
100000.1473
100000.6241
100000.6254
100000.1432
99999.8447
99999.3768
99999.3781
99999.8407
100000.6241
100001.7094
100001.7301
100000.6254
99999.3768
99998.3510
99998.3718
99999.3781
100001.7094
100004.9103
100004.9659
100001.7301
99998.3510
99995.2674
99995.3230
99998.3718
100004.9103
100010.3517
100010.4812
100004.9659
99995.2674
99988.2597
99988.3892
99995.3230
100000.0000
100000.1627
100000.1627
100000.0000
100000.0000
99999.8208
99999.8208
100000.0000
100000.1627
100000.7192
100000.7192
100000.1627
99999.8208
99999.2854
99999.2854
99999.8208
100000.7192
100002.2244
100002.2244
100000.7192
99999.2854
99997.8859
99997.8859
99999.2854
100002.2244
100005.9638
100005.9638
100002.2244
99997.8859
99994.3098
99994.3098
99997.8859
100005.9638
100011.7567
100011.7567
100005.9638
99994.3098
99987.1181
99987.1181
99994.3098
100000.0000
100000.1432
100000.1473
100000.0000
100000.0000
99999.8407
99999.8447
100000.0000
100000.1432
100000.6254
100000.6241
100000.1473
99999.8407
99999.3781
99999.3768
99999.8447
100000.6254
100001.7301
100001.7094
100000.6241
99999.3781
99998.3718
99998.3510
99999.3768
100001.7301
100004.9659
100004.9103
100001.7094
99998.3718
99995.3230
99995.2674
99998.3510
100004.9659
100010.4812
100010.3517
100004.9103
99995.3230
99988.3892
99988.2597
99995.2674
100000.0000
100000.0658
100000.0690
100000.0000
100000.0000
99999.9275
99999.9306
100000.0000
100000.0658
100000.1939
100000.1886
100000.0690
99999.9275
99999.8110
99999.8058
99999.9306
100000.1939
100000.6992
100000.6432
100000.1886
99999.8110
99999.3583
99999.3023
99999.8058
100000.6992
100000.8232
100000.6299
100000.6432
99999.3583
99999.1866
99998.9933
99999.3023
100000.8232
100007.5355
100007.9100
100000.6299
99999.1866
99990.5894
99990.9638
99998.9933

SCALARS SigmaF23 float
LOOKUP_TABLE default
0.0000
1.2237
0.9470
0.0000
0.0000
1.2237
0.9470
0.0000
1.2237
4.6940
3.9283
0.9470
1.2237
4.6940
3.9284
0.9470
4.6940
13.7370
11.0552
3.9283
4.6940
13.7369
11.0551
3.9284
13.7370
34.2139
30.9402
11.0552
13.7369
34.2120
30.9392
11.0551
34.2139
102.7322
68.8295
30.9402
34.2120
102.6977
68.8159
30.9392
0.0000
0.9470
0.3419
0.0000
0.0000
0.9470
0.3419
0.0000
0.9470
3.9283
1.4338
0.3419
0.9470
3.9284
1.4338
0.3419
3.9283
11.0552
4.3385
1.4338
3.9284
11.0551
4.3385
1.4338
11.0552
30.9402
11.6542
4.3385
11.0551
30.9392
11.6539
4.3385
30.9402
68.8295
24.6408
11.6542
30.9392
68.8159
24.6364
11.6539
0.0000
0.3419
-0.3419
0.0000
0.0000
0.3419
-0.3419
0.0000
0.3419
1.4338
-1.4338
-0.3419
0.3419
1.4338
-1.4338
-0.3419
1.4338
4.3385
-4.3385
-1.4338
1.4338
4.3385
-4.3385
-1.4338
4.3385
11.6542
-11.6542
-4.3385
4.3385
11.6539
-11.6539
-4.3385
11.6542
24.6408
-24.6408
-11.6542
11.6539
24.6364
-24.6364
-11.6539
0.0000
-0.3419
-0.9470
0.0000
0.0000
-0.3419
-0.9470
0.0000
-0.3419
-1.4338
-3.9283
-0.9470
-0.3419
-1.4338
-3.9284
-0.9470
-1.4338
-4.3385
-11.0552
-3.9283
-1.4338
-4.3385
-11.0551
-3.9284
-4.3385
-11.6542
-30.9402
-11.0552
-4.3385
-11.6539
-30.9392
-11.0551
-11.6542
-24.6408
-68.8295
-30.9402
-11.6539
-24.6364
-68.8159
-30.9392
0.0000
-0.9470
-1.2237
0.0000
0.0000
-0.9470
-1.2237
0.0000
-0.9470
-3.9283
-4.6940
-1.2237
-0.9470
-3.9284
-4.6940
-1.2237
-3.9283
-11.0552
-13.7370
-4.6940
-3.9284
-11.0551
-13.7369
-4.6940
-11.0552
-30.9402
-34.2139
-13.7370
-11.0551
-30.9392
-34.2120
-13.7369
-30.9402
-68.8295
-102.7322
-34.2139
-30.9392
-68.8159
-102.6977
-34.2120

SCALARS SigmaF31 float
LOOKUP_TABLE default
18.6161
7570.1854
7569.2688
18.3080
18.2931
7430.8626
7429.9796
17.9849
7554.8177
13379.9390
13377.6715
7553.6615
7446.4613
13187.3824
13185.1843
7445.3400
13351.5345
17472.3735
17466.5360
13348.7106
13214.3462
17292.3649
17286.7194
13211.6491
17435.8030
19892.2466
19877.4865
17428.9970
17327.8926
19768.7625
19754.5003
17321.4830
19852.8375
20686.8477
20646.8468
19834.5900
19811.1507
20643.0869
20604.1321
19793.8643
18.3080
7569.2688
7568.6071
18.2127
17.9849
7429.9796
7429.3459
17.8896
7553.6615
13377.6715
13376.1920
7552.9676
7445.3400
13185.1843
13183.7553
7444.6721
13348.7106
17466.5360
17462.4613
13347.1952
13211.6491
17286.7194
17282.8208
13210.2492
17428.9970
19877.4865
19867.9528
17424.5167
17321.4830
19754.5003
19745.3205
17317.2854
19834.5900
20646.8468
20628.8971
19825.3123
19793.8643
20604.1321
20586.6511
19785.0184
18.2127
7568.6071
7568.6071
18.2127
17.8896
7429.3459
7429.3459
17.8896
7552.9676
13376.1920
13376.1920
7552.9676
7444.6721
13183.7553
13183.7553
7444.6721
13347.1952
17462.4613
17462.4613
13347.1952
13210.2492
17282.8208
17282.8208
13210.2492
17424.5167
19867.9528
19867.9528
17424.5167
17317.2854
19745.3205
19745.3205
17317.2854
19825.3123
20628.8971
20628.8971
19825.3123
19785.0184
20586.6511
20586.6511
19785.0184
18.2127
7568.6071
7569.2688
18.3080
17.8896
7429.3459
7429.9796
17.9849
7552.9676
13376.1920
13377.6715
7553.6615
7444.6721
13183.7553
13185.1843
7445.3400
13347.1952
17462.4613
17466.5360
13348.7106
13210.2492
17282.8208
17286.7194
13211.6491
17424.5167
19867.9528
19877.4865
17428.9970
17317.2854
19745.3205
19754.5003
17321.4830
19825.3123
20628.8971
20646.8468
19834.5900
19785.0184
20586.6511
20604.1321
19793.8643
18.3080
7569.2688
7570.1854
18.6161
17.9849
7429.9796
7430.8626
18.2931
7553.6615
13377.6715
13379.9390
7554.8177
7445.3400
13185.1843
13187.3824
7446.4613
13348.7106
17466.5360
17472.3735
13351.5345
13211.6491
17286.7194
17292.3649
13214.3462
17428.9970
19877.4865
19892.2466
17435.8030
17321.4830
19754.5003
19768.7625
17327.8926
19834.5900
20646.8468
20686.8477
19852.8375
19793.8643
20604.1321
20643.0869
19811.1507

SCALARS SigmaF32 float
LOOKUP_TABLE default
-0.0161
-1.3221
-1.1496
-0.0060
-0.0158
-1.2882
-1.1156
-0.0056
-1.3221
-4.9450
-4.3744
-1.1496
-1.2882
-4.8066
-4.2359
-1.1156
-4.9450
-14.3887
-12.2534
-4.3744
-4.8066
-13.9311
-11.7957
-4.2359
-14.3887
-37.2508
-32.5221
-12.2534
-13.9311
-35.8979
-31.1701
-11.7957
-37.2508
-118.5873
-67.6783
-32.5221
-35.8979
-115.2224
-64.3238
-31.1701
-0.0056
-1.1142
-0.4056
-0.0001
-0.0053
-1.0859
-0.3774
0.0001
-1.1142
-4.2878
-1.5789
-0.4056
-1.0859
-4.1827
-1.4740
-0.3774
-4.2878
-12.2437
-4.8034
-1.5789
-4.1827
-11.8466
-4.4067
-1.4740
-12.2437
-33.2093
-11.8657
-4.8034
-11.8466
-32.1744
-10.8333
-4.4067
-33.2093
-77.2507
-22.2785
-11.8657
-32.1744
-75.3109
-20.3500
-10.8333
-0.0021
-0.3995
0.3995
0.0021
-0.0020
-0.3994
0.3994
0.0020
-0.3995
-1.5606
1.5606
0.3995
-0.3994
-1.5605
1.5605
0.3994
-1.5606
-4.7498
4.7498
1.5606
-1.5605
-4.7495
4.7495
1.5605
-4.7498
-12.5536
12.5536
4.7498
-4.7495
-12.5522
12.5522
4.7495
-12.5536
-30.4374
30.4374
12.5536
-12.5522
-30.4315
30.4315
12.5522
0.0001
0.4056
1.1142
0.0056
-0.0001
0.3774
1.0859
0.0053
0.4056
1.5789
4.2878
1.1142
0.3774
1.4740
4.1827
1.0859
1.5789
4.8034
12.2437
4.2878
1.4740
4.4067
11.8466
4.1827
4.8034
11.8657
33.2093
12.2437
4.4067
10.8333
32.1744
11.8466
11.8657
22.2785
77.2507
33.2093
10.8333
20.3500
75.3109
32.1744
0.0060
1.1496
1.3221
0.0161
0.0056
1.1156
1.2882
0.0158
1.1496
4.3744
4.9450
1.3221
1.1156
4.2359
4.8066
1.2882
4.3744
12.2534
14.3887
4.9450
4.2359
11.7957
13.9311
4.8066
12.2534
32.5221
37.2508
14.3887
11.7957
31.1701
35.8979
13.9311
32.5221
67.6783
118.5873
37.2508
31.1701
64.3238
115.2224
35.8979

SCALARS SigmaF33 float
LOOKUP_TABLE default
99992.0114
99716.3711
99716.4486
99992.0992
100002.5049
99718.7821
99718.8406
100002.4185
99716.3711
99114.9692
99115.2168
99716.4486
99718.7821
99115.5105
99115.8164
99718.8406
99114.9692
98480.9291
98481.6556
99115.2168
99115.5105
98480.2122
98481.3165
99115.8164
98480.9291
98020.4350
98022.0103
98481.6556
98480.2122
98014.9815
98018.8159
98481.3165
98020.4350
97863.2378
97863.2062
98022.0103
98014.9815
97830.3807
97843.8511
98018.8159
99992.0992
99716.4486
99716.5081
99992.1216
100002.4185
99718.8406
99718.8942
100002.3972
99716.4486
99115.2168
99115.4228
99716.5081
99718.8406
99115.8164
99116.0306
99718.8942
99115.2168
98481.6556
98482.4208
99115.4228
99115.8164
98481.3165
98482.1386
99116.0306
98481.6556
98022.0103
98023.9068
98482.4208
98481.3165
98018.8159
98021.0537
98482.1386
98022.0103
97863.2062
97866.0579
98023.9068
98018.8159
97843.8511
97848.7359
98021.0537
99992.1216
99716.5081
99716.5081
99992.1216
100002.3972
99718.8942
99718.8942
100002.3972
99716.5081
99115.4228
99115.4228
99716.5081
99718.8942
99116.0306
99116.0306
99718.8942
99115.4228
98482.4208
98482.4208
99115.4228
99116.0306
98482.1386
98482.1386
99116.0306
98482.4208
98023.9068
98023.9068
98482.4208
98482.1386
98021.0537
98021.0537
98482.1386
98023.9068
97866.0579
97866.0579
98023.9068
98021.0537
97848.7359
97848.7359
98021.0537
99992.1216
99716.5081
99716.4486
99992.0992
100002.3972
99718.8942
99718.8406
100002.4185
99716.5081
99115.4228
99115.2168
99716.4486
99718.8942
99116.0306
99115.8164
99718.8406
99115.4228
98482.4208
98481.6556
99115.2168
99116.0306
98482.1386
98481.3165
99115.8164
98482.4208
98023.9068
98022.0103
98481.6556
98482.1386
98021.0537
98018.8159
98481.3165
98023.9068
97866.0579
97863.2062
98022.0103
98021.0537
97848.7359
97843.8511
98018.8159
99992.0992
99716.4486
99716.3711
99992.0114
100002.4185
99718.8406
99718.7821
100002.5049
99716.4486
99115.2168
99114.9692
99716.3711
99718.8406
99115.8164
99115.5105
99718.7821
99115.2168
98481.6556
98480.9291
99114.9692
99115.8164
98481.3165
98480.2122
99115.5105
98481.6556
98022.0103
98020.4350
98480.9291
98481.3165
98018.8159
98014.9815
98480.2122
98022.0103
97863.2062
97863.2378
98020.4350
98018.8159
97843.8511
97830.3807
98014.9815

SCALARS SigmaH11 float
LOOKUP_TABLE default
0.0000
0.0000
0.0000
0.0000
0.0000
0.0000
0.0000
0.0000
0.0000
0.0000
0.0000
0.0000
0.0000
0.0000
0.0000
0.0000
0.0000
0.0000
0.0000
0.0000
0.0000
0.0000
0.0000
0.0000
0.0000
0.0000
0.0000
0.0000
0.0000
0.0000
0.0000
0.0000
0.0000
0.0000
0.0000
0.0000
0.0000
0.0000
0.0000
0.0000
0.0000
0.0000
0.0000
0.0000
0.0000
0.0000
0.0000
0.0000
0.0000
0.0000
0.0000
0.0000
0.0000
0.0000
0.0000
0.0000
0.0000
0.0000
0.0000
0.0000
0.0000
0.0000
0.0000
0.0000
0.0000
0.0000
0.0000
0.0000
0.0000
0.0000
0.0000
0.0000
0.0000
0.0000
0.0000
0.0000
0.0000
0.0000
0.0000
0.0000
0.0000
0.0000
0.0000
0.0000
0.0000
0.0000
0.0000
0.0000
0.0000
0.0000
0.0000
0.0000
0.0000
0.0000
0.0000
0.0000
0.0000
0.0000
0.0000
0.0000
0.0000
0.0000
0.0000
0.0000
0.0000
0.0000
0.0000
0.0000
0.0000
0.0000
0.0000
0.0000
0.0000
0.0000
0.0000
0.0000
0.0000
0.0000
0.0000
0.0000
0.0000
0.0000
0.0000
0.0000
0.0000
0.0000
0.0000
0.0000
0.0000
0.0000
0.0000
0.0000
0.0000
0.0000
0.0000
0.0000
0.0000
0.0000
0.0000
0.0000
0.0000
0.0000
0.0000
0.0000
0.0000
0.0000
0.0000
0.0000
0.0000
0.0000
0.0000
0.0000
0.0000
0.0000
0.0000
0.0000
0.0000
0.0000
0.0000
0.0000
0.0000
0.0000
0.0000
0.0000
0.0000
0.0000
0.0000
0.0000
0.0000
0.0000
0.0000
0.0000
0.0000
0.0000
0.0000
0.0000
0.0000
0.0000
0.0000
0.0000
0.0000
0.0000
0.0000
0.0000
0.0000
0.0000
0.0000
0.0000
0.0000
0.0000
0.0000
0.0000
0.0000
0.0000
0.0000
0.0000
0.0000
0.0000
0.0000
0.0000

SCALARS SigmaH12 float
LOOKUP_TABLE default
0.0000
0.0000
0.0000
0.0000
0.0000
0.0000
0.0000
0.0000
0.0000
0.0000
0.0000
0.0000
0.0000
0.0000
0.0000
0.0000
0.0000
0.0000
0.0000
0.0000
0.0000
0.0000
0.0000
0.0000
0.0000
0.0000
0.0000
0.0000
0.0000
0.0000
0.0000
0.0000
0.0000
0.0000
0.0000
0.0000