# vtk DataFile Version 2.0
VTK from Matlab
ASCII

DATASET UNSTRUCTURED_GRID
POINTS 315 float
0.000 0.000 0.000
0.000 0.000 0.025
0.000 0.000 0.050
0.000 0.250 0.000
0.000 0.250 0.025
0.000 0.250 0.050
0.000 0.500 0.000
0.000 0.500 0.025
0.000 0.500 0.050
0.000 0.750 0.000
0.000 0.750 0.025
0.000 0.750 0.050
0.000 1.000 0.000
0.000 1.000 0.025
0.000 1.000 0.050
0.506 0.000 0.062
0.500 0.000 0.086
0.494 0.000 0.110
0.506 0.250 0.062
0.500 0.250 0.086
0.494 0.250 0.111
0.506 0.500 0.062
0.500 0.500 0.086
0.494 0.500 0.111
0.506 0.750 0.062
0.500 0.750 0.086
0.494 0.750 0.111
0.505 1.000 0.063
0.499 1.000 0.087
0.493 1.000 0.111
0.975 0.000 0.264
0.962 0.000 0.285
0.948 0.000 0.306
0.975 0.250 0.264
0.962 0.250 0.285
0.948 0.250 0.306
0.975 0.500 0.264
0.962 0.500 0.285
0.948 0.500 0.306
0.975 0.750 0.264
0.962 0.750 0.285
0.948 0.750 0.306
0.975 1.000 0.264
0.961 1.000 0.285
0.948 1.000 0.307
1.361 0.000 0.598
1.342 0.000 0.614
1.323 0.000 0.631
1.361 0.250 0.598
1.342 0.250 0.614
1.323 0.250 0.631
1.361 0.500 0.598
1.342 0.500 0.614
1.323 0.500 0.631
1.361 0.750 0.598
1.342 0.750 0.614
1.323 0.750 0.631
1.361 1.000 0.598
1.342 1.000 0.614
1.323 1.000 0.631
1.632 0.000 1.031
1.609 0.000 1.041
1.586 0.000 1.051
1.631 0.250 1.031
1.609 0.250 1.041
1.586 0.250 1.051
1.631 0.500 1.031
1.609 0.500 1.041
1.586 0.500 1.051
1.631 0.750 1.031
1.609 0.750 1.041
1.586 0.750 1.051
1.631 1.000 1.031
1.609 1.000 1.041
1.586 1.000 1.051
1.762 0.000 1.525
1.738 0.000 1.528
1.713 0.000 1.531
1.762 0.250 1.525
1.738 0.250 1.528
1.712 0.250 1.530
1.762 0.500 1.525
1.737 0.500 1.528
1.712 0.500 1.530
1.762 0.750 1.525
1.738 0.750 1.528
1.712 0.750 1.530
1.762 1.000 1.525
1.737 1.000 1.528
1.712 1.000 1.530
1.741 0.000 2.035
1.717 0.000 2.031
1.692 0.000 2.026
1.741 0.250 2.035
1.717 0.250 2.031
1.692 0.250 2.026
1.741 0.500 2.035
1.717 0.500 2.031
1.692 0.500 2.026
1.741 0.750 2.035
1.717 0.750 2.031
1.692 0.750 2.026
1.741 1.000 2.035
1.717 1.000 2.030
1.692 1.000 2.026
1.570 0.000 2.517
1.548 0.000 2.505
1.526 0.000 2.493
1.570 0.250 2.516
1.548 0.250 2.505
1.526 0.250 2.493
1.570 0.500 2.516
1.548 0.500 2.505
1.526 0.500 2.493
1.570 0.750 2.516
1.548 0.750 2.505
1.526 0.750 2.493
1.570 1.000 2.516
1.548 1.000 2.505
1.526 1.000 2.493
1.265 0.000 2.926
1.247 0.000 2.908
1.230 0.000 2.890
1.265 0.250 2.926
1.247 0.250 2.908
1.230 0.250 2.890
1.265 0.500 2.926
1.247 0.500 2.908
1.230 0.500 2.890
1.265 0.750 2.926
1.247 0.750 2.908
1.230 0.750 2.890
1.265 1.000 2.925
1.247 1.000 2.908
1.230 1.000 2.890
0.852 0.000 3.227
0.841 0.000 3.205
0.829 0.000 3.183
0.852 0.250 3.226
0.841 0.250 3.205
0.829 0.250 3.182
0.852 0.500 3.226
0.841 0.500 3.205
0.829 0.500 3.182
0.852 0.750 3.226
0.841 0.750 3.205
0.829 0.750 3.182
0.852 1.000 3.226
0.841 1.000 3.204
0.829 1.000 3.182
0.369 0.000 3.392
0.364 0.000 3.368
0.360 0.000 3.343
0.369 0.250 3.392
0.365 0.250 3.368
0.360 0.250 3.343
0.369 0.500 3.392
0.365 0.500 3.368
0.360 0.500 3.343
0.369 0.750 3.392
0.365 0.750 3.368
0.360 0.750 3.343
0.369 1.000 3.392
0.365 1.000 3.368
0.360 1.000 3.343
-0.142 0.000 3.408
-0.139 0.000 3.383
-0.136 0.000 3.358
-0.141 0.250 3.407
-0.139 0.250 3.383
-0.136 0.250 3.358
-0.141 0.500 3.407
-0.139 0.500 3.383
-0.136 0.500 3.358
-0.141 0.750 3.407
-0.139 0.750 3.383
-0.136 0.750 3.358
-0.141 1.000 3.407
-0.138 1.000 3.383
-0.135 1.000 3.358
-0.634 0.000 3.272
-0.624 0.000 3.249
-0.614 0.000 3.226
-0.634 0.250 3.271
-0.624 0.250 3.249
-0.613 0.250 3.226
-0.634 0.500 3.271
-0.624 0.500 3.249
-0.613 0.500 3.226
-0.634 0.750 3.271
-0.624 0.750 3.249
-0.613 0.750 3.226
-0.633 1.000 3.271
-0.623 1.000 3.249
-0.613 1.000 3.226
-1.064 0.000 2.996
-1.048 0.000 2.978
-1.031 0.000 2.959
-1.064 0.250 2.996
-1.047 0.250 2.978
-1.031 0.250 2.959
-1.064 0.500 2.996
-1.047 0.500 2.978
-1.031 0.500 2.959
-1.064 0.750 2.996
-1.048 0.750 2.978
-1.031 0.750 2.959
-1.064 1.000 2.996
-1.047 1.000 2.978
-1.031 1.000 2.959
-1.394 0.000 2.606
-1.373 0.000 2.593
-1.351 0.000 2.580
-1.393 0.250 2.606
-1.372 0.250 2.593
-1.351 0.250 2.580
-1.393 0.500 2.606
-1.372 0.500 2.593
-1.351 0.500 2.580
-1.393 0.750 2.606
-1.372 0.750 2.593
-1.351 0.750 2.580
-1.393 1.000 2.606
-1.372 1.000 2.593
-1.351 1.000 2.580
-1.593 0.000 2.136
-1.569 0.000 2.130
-1.545 0.000 2.124
-1.593 0.250 2.136
-1.569 0.250 2.130
-1.545 0.250 2.124
-1.593 0.500 2.136
-1.569 0.500 2.130
-1.545 0.500 2.124
-1.593 0.750 2.136
-1.569 0.750 2.130
-1.545 0.750 2.124
-1.593 1.000 2.136
-1.569 1.000 2.130
-1.544 1.000 2.124
-1.645 0.000 1.628
-1.621 0.000 1.629
-1.595 0.000 1.630
-1.645 0.250 1.628
-1.620 0.250 1.629
-1.595 0.250 1.631
-1.645 0.500 1.628
-1.620 0.500 1.629
-1.595 0.500 1.631
-1.645 0.750 1.628
-1.620 0.750 1.629
-1.595 0.750 1.631
-1.645 1.000 1.628
-1.620 1.000 1.630
-1.595 1.000 1.631
-1.545 0.000 1.127
-1.521 0.000 1.136
-1.498 0.000 1.144
-1.544 0.250 1.128
-1.521 0.250 1.136
-1.498 0.250 1.145
-1.545 0.500 1.128
-1.521 0.500 1.136
-1.498 0.500 1.145
-1.545 0.750 1.128
-1.522 0.750 1.136
-1.498 0.750 1.144
-1.545 1.000 1.128
-1.522 1.000 1.136
-1.498 1.000 1.145
-1.301 0.000 0.679
-1.281 0.000 0.693
-1.261 0.000 0.709
-1.301 0.250 0.679
-1.281 0.250 0.694
-1.261 0.250 0.709
-1.301 0.500 0.679
-1.281 0.500 0.694
-1.261 0.500 0.709
-1.301 0.750 0.679
-1.281 0.750 0.694
-1.261 0.750 0.709
-1.301 1.000 0.679
-1.281 1.000 0.694
-1.261 1.000 0.709
-0.936 0.000 0.321
-0.922 0.000 0.341
-0.907 0.000 0.361
-0.936 0.250 0.321
-0.922 0.250 0.341
-0.907 0.250 0.362
-0.936 0.500 0.322
-0.921 0.500 0.342
-0.907 0.500 0.362
-0.935 0.750 0.323
-0.921 0.750 0.342
-0.906 0.750 0.363
-0.935 1.000 0.323
-0.921 1.000 0.343
-0.906 1.000 0.364
-0.483 0.000 0.086
-0.475 0.000 0.110
-0.467 0.000 0.134
-0.482 0.250 0.087
-0.474 0.250 0.111
-0.466 0.250 0.135
-0.481 0.500 0.090
-0.473 0.500 0.113
-0.465 0.500 0.137
-0.480 0.750 0.092
-0.472 0.750 0.115
-0.464 0.750 0.139
-0.479 1.000 0.092
-0.472 1.000 0.116
-0.464 1.000 0.140

CELLS 960 4800
4 0 15 1 3
4 1 15 16 4
4 4 3 1 15
4 19 4 18 16
4 18 4 3 15
4 15 16 18 4
4 15 30 16 18
4 16 30 31 19
4 19 18 16 30
4 34 19 33 31
4 33 19 18 30
4 30 31 33 19
4 30 45 31 33
4 31 45 46 34
4 34 33 31 45
4 49 34 48 46
4 48 34 33 45
4 45 46 48 34
4 45 60 46 48
4 46 60 61 49
4 49 48 46 60
4 64 49 63 61
4 63 49 48 60
4 60 61 63 49
4 60 75 61 63
4 61 75 76 64
4 64 63 61 75
4 79 64 78 76
4 78 64 63 75
4 75 76 78 64
4 75 90 76 78
4 76 90 91 79
4 79 78 76 90
4 94 79 93 91
4 93 79 78 90
4 90 91 93 79
4 90 105 91 93
4 91 105 106 94
4 94 93 91 105
4 109 94 108 106
4 108 94 93 105
4 105 106 108 94
4 105 120 106 108
4 106 120 121 109
4 109 108 106 120
4 124 109 123 121
4 123 109 108 120
4 120 121 123 109
4 120 135 121 123
4 121 135 136 124
4 124 123 121 135
4 139 124 138 136
4 138 124 123 135
4 135 136 138 124
4 135 150 136 138
4 136 150 151 139
4 139 138 136 150
4 154 139 153 151
4 153 139 138 150
4 150 151 153 139
4 150 165 151 153
4 151 165 166 154
4 154 153 151 165
4 169 154 168 166
4 168 154 153 165
4 165 166 168 154
4 165 180 166 168
4 166 180 181 169
4 169 168 166 180
4 184 169 183 181
4 183 169 168 180
4 180 181 183 169
4 180 195 181 183
4 181 195 196 184
4 184 183 181 195
4 199 184 198 196
4 198 184 183 195
4 195 196 198 184
4 195 210 196 198
4 196 210 211 199
4 199 198 196 210
4 214 199 213 211
4 213 199 198 210
4 210 211 213 199
4 210 225 211 213
4 211 225 226 214
4 214 213 211 225
4 229 214 228 226
4 228 214 213 225
4 225 226 228 214
4 225 240 226 228
4 226 240 241 229
4 229 228 226 240
4 244 229 243 241
4 243 229 228 240
4 240 241 243 229
4 240 255 241 243
4 241 255 256 244
4 244 243 241 255
4 259 244 258 256
4 258 244 243 255
4 255 256 258 244
4 255 270 256 258
4 256 270 271 259
4 259 258 256 270
4 274 259 273 271
4 273 259 258 270
4 270 271 273 259
4 270 285 271 273
4 271 285 286 274
4 274 273 271 285
4 289 274 288 286
4 288 274 273 285
4 285 286 288 274
4 285 300 286 288
4 286 300 301 289
4 289 288 286 300
4 304 289 303 301
4 303 289 288 300
4 300 301 303 289
4 3 18 4 6
4 4 18 19 7
4 7 6 4 18
4 22 7 21 19
4 21 7 6 18
4 18 19 21 7
4 18 33 19 21
4 19 33 34 22
4 22 21 19 33
4 37 22 36 34
4 36 22 21 33
4 33 34 36 22
4 33 48 34 36
4 34 48 49 37
4 37 36 34 48
4 52 37 51 49
4 51 37 36 48
4 48 49 51 37
4 48 63 49 51
4 49 63 64 52
4 52 51 49 63
4 67 52 66 64
4 66 52 51 63
4 63 64 66 52
4 63 78 64 66
4 64 78 79 67
4 67 66 64 78
4 82 67 81 79
4 81 67 66 78
4 78 79 81 67
4 78 93 79 81
4 79 93 94 82
4 82 81 79 93
4 97 82 96 94
4 96 82 81 93
4 93 94 96 82
4 93 108 94 96
4 94 108 109 97
4 97 96 94 108
4 112 97 111 109
4 111 97 96 108
4 108 109 111 97
4 108 123 109 111
4 109 123 124 112
4 112 111 109 123
4 127 112 126 124
4 126 112 111 123
4 123 124 126 112
4 123 138 124 126
4 124 138 139 127
4 127 126 124 138
4 142 127 141 139
4 141 127 126 138
4 138 139 141 127
4 138 153 139 141
4 139 153 154 142
4 142 141 139 153
4 157 142 156 154
4 156 142 141 153
4 153 154 156 142
4 153 168 154 156
4 154 168 169 157
4 157 156 154 168
4 172 157 171 169
4 171 157 156 168
4 168 169 171 157
4 168 183 169 171
4 169 183 184 172
4 172 171 169 183
4 187 172 186 184
4 186 172 171 183
4 183 184 186 172
4 183 198 184 186
4 184 198 199 187
4 187 186 184 198
4 202 187 201 199
4 201 187 186 198
4 198 199 201 187
4 198 213 199 201
4 199 213 214 202
4 202 201 199 213
4 217 202 216 214
4 216 202 201 213
4 213 214 216 202
4 213 228 214 216
4 214 228 229 217
4 217 216 214 228
4 232 217 231 229
4 231 217 216 228
4 228 229 231 217
4 228 243 229 231
4 229 243 244 232
4 232 231 229 243
4 247 232 246 244
4 246 232 231 243
4 243 244 246 232
4 243 258 244 246
4 244 258 259 247
4 247 246 244 258
4 262 247 261 259
4 261 247 246 258
4 258 259 261 247
4 258 273 259 261
4 259 273 274 262
4 262 261 259 273
4 277 262 276 274
4 276 262 261 273
4 273 274 276 262
4 273 288 274 276
4 274 288 289 277
4 277 276 274 288
4 292 277 291 289
4 291 277 276 288
4 288 289 291 277
4 288 303 289 291
4 289 303 304 292
4 292 291 289 303
4 307 292 306 304
4 306 292 291 303
4 303 304 306 292
4 6 21 7 9
4 7 21 22 10
4 10 9 7 21
4 25 10 24 22
4 24 10 9 21
4 21 22 24 10
[...]
POINT_DATA 315
SCALARS ux float
LOOKUP_TABLE default
0.0000
0.0000
0.0000
0.0000
0.0000
0.0000
0.0000
0.0000
0.0000
0.0000
0.0000
0.0000
0.0000
0.0000
0.0000
0.0060
-0.0000
-0.0061
0.0058
-0.0003
-0.0064
0.0058
-0.0003
-0.0064
0.0058
-0.0003
-0.0065
0.0055
-0.0006
-0.0068
-0.0249
-0.0380
-0.0515
-0.0251
-0.0383
-0.0518
-0.0252
-0.0383
-0.0518
-0.0252
-0.0383
-0.0518
-0.0254
-0.0386
-0.0520
-0.1388
-0.1575
-0.1767
-0.1390
-0.1577
-0.1769
-0.1390
-0.1576
-0.1768
-0.1389
-0.1576
-0.1767
-0.1391
-0.1578
-0.1770
-0.3684
-0.3909
-0.4141
-0.3686
-0.3912
-0.4143
-0.3686
-0.3912
-0.4143
-0.3685
-0.3911
-0.4142
-0.3688
-0.3913
-0.4145
-0.7378
-0.7622
-0.7873
-0.7380
-0.7625
-0.7876
-0.7381
-0.7625
-0.7876
-0.7380
-0.7625
-0.7875
-0.7382
-0.7627
-0.7878
-1.2590
-1.2831
-1.3079
-1.2592
-1.2833
-1.3081
-1.2592
-1.2833
-1.3081
-1.2592
-1.2833
-1.3081
-1.2593
-1.2835
-1.3083
-1.9299
-1.9516
-1.9738
-1.9301
-1.9518
-1.9740
-1.9301
-1.9518
-1.9740
-1.9300
-1.9517
-1.9739
-1.9302
-1.9518
-1.9741
-2.7353
-2.7526
-2.7704
-2.7354
-2.7527
-2.7705
-2.7354
-2.7527
-2.7705
-2.7354
-2.7527
-2.7704
-2.7355
-2.7527
-2.7705
-3.6480
-3.6594
-3.6710
-3.6480
-3.6594
-3.6710
-3.6480
-3.6594
-3.6710
-3.6480
-3.6594
-3.6710
-3.6480
-3.6594
-3.6710
-4.6312
-4.6356
-4.6401
-4.6311
-4.6355
-4.6400
-4.6311
-4.6355
-4.6400
-4.6311
-4.6355
-4.6400
-4.6310
-4.6354
-4.6399
-5.6416
-5.6387
-5.6357
-5.6415
-5.6385
-5.6355
-5.6415
-5.6385
-5.6355
-5.6415
-5.6385
-5.6355
-5.6413
-5.6384
-5.6354
-6.6338
-6.6238
-6.6136
-6.6336
-6.6236
-6.6133
-6.6336
-6.6236
-6.6134
-6.6337
-6.6236
-6.6134
-6.6335
-6.6234
-6.6132
-7.5639
-7.5477
-7.5311
-7.5637
-7.5475
-7.5309
-7.5637
-7.5475
-7.5309
-7.5637
-7.5475
-7.5309
-7.5635
-7.5473
-7.5307
-8.3936
-8.3726
-8.3511
-8.3933
-8.3723
-8.3509
-8.3933
-8.3723
-8.3509
-8.3933
-8.3724
-8.3509
-8.3931
-8.3721
-8.3506
-9.0932
-9.0694
-9.0450
-9.0930
-9.0691
-9.0447
-9.0930
-9.0691
-9.0447
-9.0930
-9.0691
-9.0447
-9.0927
-9.0689
-9.0445
-9.6451
-9.6206
-9.5954
-9.6449
-9.6203
-9.5951
-9.6449
-9.6203
-9.5951
-9.6450
-9.6204
-9.5952
-9.6448
-9.6202
-9.5950
-10.0446
-10.0214
-9.9977
-10.0444
-10.0213
-9.9976
-10.0445
-10.0214
-9.9977
-10.0448
-10.0216
-9.9979
-10.0447
-10.0216
-9.9979
-10.3008
-10.2811
-10.2610
-10.3006
-10.2810
-10.2609
-10.3007
-10.2811
-10.2610
-10.3008
-10.2812
-10.2611
-10.3007
-10.2811
-10.2611
-10.4364
-10.4220
-10.4071
-10.4362
-10.4218
-10.4069
-10.4357
-10.4213
-10.4065
-10.4352
-10.4208
-10.4061
-10.4349
-10.4206
-10.4058
-10.4827
-10.4748
-10.4667
-10.4822
-10.4744
-10.4664
-10.4809
-10.4732
-10.4653
-10.4797
-10.4721
-10.4643
-10.4794
-10.4718
-10.4640

SCALARS uy float
LOOKUP_TABLE default
0.0000
0.0000
0.0000
0.0000
0.0000
0.0000
0.0000
0.0000
0.0000
0.0000
0.0000
0.0000
0.0000
0.0000
0.0000
0.0000
0.0000
0.0000
0.0000
-0.0000
-0.0001
-0.0001
-0.0000
0.0000
0.0001
0.0000
-0.0001
0.0000
0.0000
0.0000
0.0000
0.0000
0.0000
0.0001
0.0000
-0.0000
-0.0000
-0.0000
0.0000
0.0001
0.0000
-0.0001
0.0000
0.0000
0.0000
0.0000
0.0000
0.0000
0.0000
-0.0000
-0.0000
-0.0001
-0.0000
0.0000
0.0000
-0.0000
-0.0000
0.0000
0.0000
0.0000
0.0000
0.0000
0.0000
0.0000
-0.0000
-0.0000
-0.0001
-0.0000
0.0000
0.0000
-0.0000
-0.0000
0.0000
0.0000
0.0000
0.0000
0.0000
0.0000
0.0000
-0.0000
-0.0001
-0.0000
-0.0000
0.0000
0.0000
-0.0000
-0.0000
0.0000
0.0000
0.0000
0.0000
0.0000
0.0000
0.0000
-0.0000
-0.0001
-0.0000
-0.0000
0.0000
0.0000
-0.0000
-0.0000
0.0000
0.0000
0.0000
0.0000
0.0000
0.0000
0.0000
-0.0000
-0.0000
-0.0000
-0.0000
0.0000
0.0000
-0.0000
-0.0000
0.0000
0.0000
0.0000
0.0000
0.0000
0.0000
0.0000
-0.0000
-0.0000
-0.0000
-0.0000
0.0000
0.0000
-0.0000
-0.0000
0.0000
0.0000
0.0000
0.0000
0.0000
0.0000
0.0000
-0.0000
-0.0000
-0.0000
-0.0000
0.0000
0.0000
-0.0000
-0.0000
0.0000
0.0000
0.0000
0.0000
0.0000
0.0000
0.0000
-0.0000
-0.0000
-0.0000
-0.0000
0.0000
0.0000
-0.0000
-0.0000
0.0000
0.0000
0.0000
0.0000
0.0000
0.0000
0.0000
-0.0000
-0.0000
-0.0000
-0.0000
0.0000
0.0000
-0.0000
-0.0000
0.0000
0.0000
0.0000
0.0000
0.0000
0.0000
0.0000
-0.0000
-0.0000
-0.0000
-0.0000
0.0000
0.0000
-0.0000
-0.0000
0.0000
0.0000
0.0000
0.0000
0.0000
0.0000
0.0000
-0.0000
-0.0000
-0.0000
-0.0000
0.0000
0.0000
-0.0000
-0.0000
0.0000
0.0000
0.0000
0.0000
0.0000
0.0000
0.0000
-0.0000
-0.0000
-0.0000
-0.0000
0.0000
0.0000
-0.0000
-0.0000
0.0000
0.0000
0.0000
0.0000
0.0000
0.0000
0.0000
-0.0000
-0.0000
-0.0000
-0.0000
0.0000
0.0000
-0.0000
-0.0000
0.0000
0.0000
0.0000
0.0000
0.0000
0.0000
0.0000
-0.0000
-0.0000
-0.0000
-0.0000
0.0000
0.0000
-0.0000
-0.0000
0.0000
0.0000
0.0000
0.0000
0.0000
0.0000
0.0000
-0.0000
-0.0000
-0.0001
-0.0000
0.0000
0.0000
-0.0000
-0.0000
0.0000
0.0000
0.0000
0.0000
0.0000
0.0000
0.0000
-0.0000
-0.0001
-0.0001
-0.0000
0.0000
-0.0000
-0.0000
-0.0000
0.0000
0.0000
0.0000
0.0000
0.0000
0.0000
0.0001
0.0000
-0.0001
0.0001
0.0000
-0.0000
0.0001
0.0000
-0.0001
0.0000
0.0000
0.0000
0.0000
0.0000
0.0000
0.0001
-0.0001
-0.0004
0.0000
-0.0002
-0.0004
0.0000
-0.0001
-0.0003
0.0000
0.0000
0.0000

SCALARS uz float
LOOKUP_TABLE default
0.0000
0.0000
0.0000
0.0000
0.0000
0.0000
0.0000
0.0000
0.0000
0.0000
0.0000
0.0000
0.0000
0.0000
0.0000
0.0620
0.0609
0.0603
0.0624
0.0613
0.0607
0.0624
0.0613
0.0607
0.0624
0.0613
0.0607
0.0629
0.0618
0.0612
0.2638
0.2596
0.2559
0.2640
0.2598
0.2561
0.2641
0.2599
0.2562
0.2641
0.2599
0.2563
0.2644
0.2602
0.2565
0.5983
0.5892
0.5806
0.5983
0.5893
0.5807
0.5983
0.5892
0.5806
0.5982
0.5892
0.5806
0.5983
0.5892
0.5806
1.0314
1.0162
1.0012
1.0314
1.0162
1.0012
1.0314
1.0162
1.0012
1.0314
1.0161
1.0011
1.0313
1.0161
1.0011
1.5251
1.5028
1.4805
1.5250
1.5027
1.4804
1.5250
1.5027
1.4804
1.5250
1.5027
1.4804
1.5249
1.5026
1.4803
2.0354
2.0057
1.9759
2.0352
2.0055
1.9757
2.0352
2.0055
1.9757
2.0352
2.0055
1.9757
2.0351
2.0054
1.9756
2.5166
2.4800
2.4431
2.5164
2.4798
2.4429
2.5164
2.4798
2.4429
2.5164
2.4798
2.4429
2.5162
2.4796
2.4427
2.9259
2.8834
2.8405
2.9256
2.8831
2.8402
2.9256
2.8831
2.8402
2.9257
2.8832
2.8402
2.9254
2.8829
2.8400
3.2267
3.1799
3.1325
3.2264
3.1796
3.1322
3.2264
3.1796
3.1322
3.2265
3.1796
3.1323
3.2262
3.1794
3.1320
3.3922
3.3430
3.2932
3.3919
3.3427
3.2929
3.3919
3.3427
3.2929
3.3920
3.3428
3.2930
3.3917
3.3426
3.2927
3.4076
3.3582
3.3082
3.4074
3.3580
3.3079
3.4074
3.3580
3.3079
3.4074
3.3580
3.3080
3.4072
3.3578
3.3078
3.2716
3.2241
3.1761
3.2714
3.2239
3.1759
3.2714
3.2240
3.1759
3.2715
3.2240
3.1760
3.2713
3.2239
3.1758
2.9963
2.9527
2.9088
2.9961
2.9526
2.9087
2.9961
2.9526
2.9087
2.9962
2.9527
2.9087
2.9961
2.9526
2.9086
2.6062
2.5683
2.5301
2.6061
2.5682
2.5300
2.6061
2.5682
2.5300
2.6062
2.5683
2.5301
2.6061
2.5683
2.5300
2.1361
2.1050
2.0737
2.1362
2.1051
2.0738
2.1362
2.1050
2.0738
2.1362
2.1051
2.0738
2.1362
2.1051
2.0738
1.6281
1.6043
1.5805
1.6282
1.6044
1.5806
1.6282
1.6044
1.5806
1.6282
1.6044
1.5806
1.6283
1.6045
1.5807
1.1274
1.1108
1.0944
1.1276
1.1110
1.0946
1.1276
1.1110
1.0946
1.1275
1.1109
1.0945
1.1277
1.1110
1.0946
0.6787
0.6685
0.6587
0.6789
0.6687
0.6589
0.6789
0.6688
0.6590
0.6789
0.6688
0.6590
0.6791
0.6690
0.6593
0.3208
0.3157
0.3111
0.3213
0.3162
0.3116
0.3219
0.3168
0.3122
0.3225
0.3175
0.3130
0.3231
0.3181
0.3136
0.0863
0.0846
0.0836
0.0874
0.0857
0.0847
0.0896
0.0879
0.0869
0.0915
0.0899
0.0889
0.0925
0.0908
0.0897

SCALARS phi float
LOOKUP_TABLE default
-357483.3050
0.0000
0.0000
-357202.3515
0.0000
0.0000
-357151.3358
0.0000
0.0000
-357124.6775
0.0000
0.0000
-356865.6859
0.0000
0.0000
-349415.0468
0.0000
0.0000
-348358.7233
0.0000
0.0000
-348295.0479
0.0000
0.0000
-348456.0617
0.0000
0.0000
-347297.3136
0.0000
0.0000
-347470.6390
0.0000
0.0000
-347213.8218
0.0000
0.0000
-347193.3824
0.0000
0.0000
-347190.7613
0.0000
0.0000
-346962.5944
0.0000
0.0000
-347028.0388
0.0000
0.0000
-347121.5609
0.0000
0.0000
-347031.1552
0.0000
0.0000
-347054.6055
0.0000
0.0000
-347025.3826
0.0000
0.0000
-347325.1840
0.0000
0.0000
-347227.3261
0.0000
0.0000
-347168.5717
0.0000
0.0000
-347102.9471
0.0000
0.0000
-347008.5688
0.0000
0.0000
-347239.8184
0.0000
0.0000
-347178.2278
0.0000
0.0000
-347151.9053
0.0000
0.0000
-347104.3245
0.0000
0.0000
-347017.2627
0.0000
0.0000
-347239.5245
0.0000
0.0000
-347180.8930
0.0000
0.0000
-347154.0861
0.0000
0.0000
-347107.4685
0.0000
0.0000
-347017.1347
0.0000
0.0000
-347251.8379
0.0000
0.0000
-347182.4276
0.0000
0.0000
-347153.0886
0.0000
0.0000
-347104.6396
0.0000
0.0000
-347014.6546
0.0000
0.0000
-347251.8548
0.0000
0.0000
-347182.3140
0.0000
0.0000
-347152.6743
0.0000
0.0000
-347104.2868
0.0000
0.0000
-347014.5608
0.0000
0.0000
-347251.5908
0.0000
0.0000
-347182.0389
0.0000
0.0000
-347152.8347
0.0000
0.0000
-347104.6988
0.0000
0.0000
-347015.0350
0.0000
0.0000
-347251.0647
0.0000
0.0000
-347181.7574
0.0000
0.0000
-347152.8550
0.0000
0.0000
-347104.9441
0.0000
0.0000
-347015.3482
0.0000
0.0000
-347251.1151
0.0000
0.0000
-347181.8786
0.0000
0.0000
-347152.9035
0.0000
0.0000
-347104.8404
0.0000
0.0000
-347014.8959
0.0000
0.0000
-347251.7845
0.0000
0.0000
-347182.5602
0.0000
0.0000
-347153.2085
0.0000
0.0000
-347104.2596
0.0000
0.0000
-347013.4812
0.0000
0.0000
-347252.2812
0.0000
0.0000
-347182.9159
0.0000
0.0000
-347153.3433
0.0000
0.0000
-347104.0939
0.0000
0.0000
-347014.1352
0.0000
0.0000
-347249.9664
0.0000
0.0000
-347179.9836
0.0000
0.0000
-347151.5735
0.0000
0.0000
-347105.9012
0.0000
0.0000
-347020.7649
0.0000
0.0000
-347244.7516
0.0000
0.0000
-347174.8681
0.0000
0.0000
-347149.8103
0.0000
0.0000
-347110.3344
0.0000
0.0000
-347032.9731
0.0000
0.0000
-347250.7183
0.0000
0.0000
-347186.0703
0.0000
0.0000
-347155.1138
0.0000
0.0000
-347102.5503
0.0000
0.0000
-346996.7722
0.0000
0.0000
-347279.1303
0.0000
0.0000
-347208.8429
0.0000
0.0000
-347162.3561
0.0000
0.0000
-347056.6356
0.0000
0.0000
-346892.3426
0.0000
0.0000
-347288.9038
0.0000
0.0000
-347260.9451
0.0000
0.0000
-347259.6145
0.0000
0.0000
-347169.4777
0.0000
0.0000
-347150.1177
0.0000
0.0000
-347128.7038
0.0000
0.0000
-346913.6780
0.0000
0.0000
-346910.0330
0.0000
0.0000
-347067.5317
0.0000
0.0000
-346846.6875
0.0000
0.0000
-346773.5421
0.0000
0.0000
-346900.7766
0.0000
0.0000
-346914.1091
0.0000
0.0000
-346945.7493
0.0000
0.0000
-347027.0797
0.0000
0.0000

SCALARS SigmaF11 float
LOOKUP_TABLE default
92486.2456
92384.6394
91769.5134
92501.6936
92325.9368
91730.3818
92504.8485
92311.9323
91795.9842
92498.7321
92311.5905
91791.1969
92518.2665
92277.3437
91813.7131
90999.8852
90233.3066
89129.9619
90893.8162
89962.0855
88926.6761
90884.4446
90009.0525
88923.9950
90890.3764
89959.5384
88954.2551
90640.0841
89718.3760
88761.4004
78807.0839
78092.8417
77715.7176
78882.2850
78149.5529
77599.4887
78892.2499
78171.6470
77637.5237
78889.5200
78228.2093
77650.8395
78997.8346
78274.5631
77571.2371
60661.4730
60181.2838
59717.3898
60661.8783
60161.3504
59667.6231
60665.5681
60159.0794
59678.6621
60661.7471
60171.2814
59702.3242
60673.8126
60144.8151
59643.3697
37175.8958
36847.0752
36572.7653
37131.8105
36797.0677
36522.6712
37112.8243
36783.5849
36515.2727
37095.3325
36768.5035
36505.3802
37071.1368
36740.2800
36476.9875
10233.2155
10052.4427
9971.7639
10169.0921
10027.0495
9983.6288
10164.5090
10026.1449
9987.1933
10160.3666
10023.4082
9985.2361
10104.0341
10004.7471
10007.4690
-17573.3108
-17579.7488
-17462.0168
-17661.9939
-17594.2694
-17402.9304
-17660.1957
-17592.6368
-17400.5772
-17660.0290
-17594.6578
-17405.4772
-17749.5711
-17608.7485
-17341.0332
-43805.9524
-43639.9886
-43335.1211
-43917.1802
-43646.0587
-43236.9619
-43914.1298
-43646.6301
-43240.2914
-43913.0539
-43651.0238
-43251.1769
-44027.5947
-43659.1355
-43150.2223
-66132.3818
-65807.9566
-65342.6209
-66254.3311
-65804.0758
-65213.6205
-66250.2320
-65806.5994
-65222.0901
-66247.5023
-65812.2643
-65237.3839
-66376.4995
-65813.3155
-65108.6223
-82559.2939
-82105.5965
-81521.2975
-82680.7700
-82091.5595
-81372.4862
-82675.0055
-82094.8447
-81384.3551
-82670.2827
-82100.6705
-81402.0806
-82802.0918
-82094.4148
-81256.7897
-91620.4774
-91077.8875
-90426.7577
-91730.3169
-91054.7211
-90271.1856
-91723.2763
-91058.3269
-90285.2479
-91716.9030
-91063.7247
-90303.7671
-91839.7519
-91050.7262
-90154.9218
-92506.7102
-91923.6792
-91263.8229
-92595.1917
-91893.5082
-91115.4117
-92587.6731
-91897.2682
-91130.5624
-92580.3862
-91901.9199
-91148.3951
-92683.4428
-91883.4604
-91009.3792
-85138.9004
-84567.4898
-83957.8689
-85198.2178
-84533.1163
-83829.9800
-85191.0719
-84536.8568
-83844.9992
-85183.7696
-84540.5232
-83860.5811
-85257.9114
-84518.2147
-83743.7032
-70175.8160
-69667.0602
-69162.1249
-70200.5495
-69631.4296
-69066.1063
-70193.6722
-69634.0344
-69078.8575
-70185.7485
-69635.0719
-69089.3931
-70223.2508
-69609.6054
-69003.6903
-48954.6215
-48553.7193
-48198.2146
-48941.7932
-48519.1826
-48141.7666
-48933.7872
-48518.4733
-48149.1865
-48923.2591
-48514.3559
-48151.6295
-48919.8551
-48487.4883
-48104.2855
-23359.7695
-23102.2155
-22927.6119
-23310.5395
-23071.8821
-22915.6952
-23305.2924
-23071.0537
-22920.3309
-23299.7287
-23069.3126
-22922.3004
-23261.1972
-23049.6168
-22925.2369
4339.8506
4430.4494
4407.6682
4416.1411
4449.1307
4369.2555
4400.3627
4432.0727
4349.9714
4379.6379
4411.4388
4330.1308
4435.9435
4406.8526
4260.8231
31643.2039
31558.0369
31339.7750
31734.3553
31558.5525
31248.8481
31711.9497
31538.5420
31230.2438
31680.8555
31511.5076
31205.9430
31776.5859
31512.9801
31109.0910
56046.4096
55800.3218
55421.4198
56177.1677
55813.0537
55329.4464
56221.6245
55856.7086
55376.8609
56291.1357
55932.5885
55455.3441
56475.7905
55995.0078
55423.7305
75233.7152
74841.4794
74293.6135
75420.4323
74858.3823
74139.2872
75568.8895
74997.9232
74263.3611
75708.4184
75146.5171
74442.6614
75922.5745
75175.9192
49498.5273
88041.0063
87579.0342
86792.8538
88113.4264
87709.3447
86816.8727
88218.1630
87810.0709
86942.2567
88256.5871
70282.6802
49690.9204
88243.6071
50264.4257
86899.8588

SCALARS SigmaF12 float
LOOKUP_TABLE default
-0.0070
-0.0028
0.0000
23.9151
27.6868
19.7220
1.7727
0.9586
0.8392
9.0651
4.7497
-1.9642
74.8668
102.6479
94.2813
-41.0703
-56.1764
-93.8686
-44.0862
-43.2576
-41.4713
31.5290
39.6337
39.9676
-59.7007
-80.3329
-105.9967
-52.8683
-26.2159
7.7926
13.1837
-4.6853
-15.5829
-114.7060
-108.5624
-107.8624
92.2065
99.2719
109.0658
-97.8008
-99.3220
-102.2829
-34.9190
-16.0742
2.0939
-8.3122
-17.5939
-24.9175
-87.9782
-85.8406
-86.1935
146.9297
149.2966
154.4200
-93.9129
-93.3941
-96.6789
-19.1755
-14.5130
-4.1873
0.4413
-8.4469
-12.1191
-136.1162
-138.7726
-142.1515
166.0358
163.0151
165.0434
-106.8084
-111.0593
-115.6961
-15.3694
-19.8390
-19.0930
-9.8572
-9.9711
-2.3928
-166.3350
-168.1833
-169.9944
150.8743
148.5884
153.3469
-126.9145
-128.7159
-129.6767
-4.7056
-18.3482
-26.6717
-11.6888
-5.1334
9.1887
-158.0075
-162.2895
-165.0963
149.6568
146.0594
150.6212
-125.3684
-125.7008
-123.8554
5.2354
-16.4307
-33.1131
-13.3964
-0.5692
20.2661
-138.4979
-144.3173
-147.6567
137.8437
133.0537
136.9803
-113.9680
-112.8052
-108.3067
14.7324
-12.9497
-36.4678
-14.5623
3.6795
29.3179
-110.2147
-116.7964
-120.1299
111.0181
105.5646
108.5879
-93.6231
-91.0444
-84.2867
22.9389
-8.3307
-36.6012
-14.3039
7.6636
35.8028
-73.1796
-79.9354
-82.9600
73.6300
68.0078
69.8621
-65.2197
-61.4531
-53.0349
29.1264
-2.9511
-33.4628
-12.6717
10.9947
39.0610
-29.3337
-35.7062
-38.1922
29.9616
24.6375
25.1258
-30.8370
-26.2275
-16.9122
32.7272
2.7017
-27.3273
-9.8710
13.3758
38.8508
17.2912
11.8515
10.1080
-16.2342
-20.8142
-21.7637
6.3779
11.3915
20.7474
33.4203
8.1114
-18.7680
-6.1903
14.5663
35.1787
62.2184
58.1928
57.3531
-61.3381
-64.7885
-67.0914
42.5545
47.4772
56.0216
31.0671
12.6996
-8.6762
-1.9873
14.4371
28.3692
101.4749
99.2939
99.5254
-100.8552
-102.7180
-106.0012
75.2314
79.7713
86.8964
25.8792
16.1245
2.1493
2.3234
12.9474
18.9777
133.4481
133.4294
134.7949
-127.2280
-127.0259
-130.7618
106.5416
110.7625
116.1836
18.6802
18.7215
13.7791
6.5593
10.3727
7.8389
156.5655
158.5523
160.7496
-138.8858
-136.9133
-141.1336
131.8560
135.3429
138.6232
10.0363
20.6045
25.6149
10.6935
7.4471
-3.3037
158.0936
161.2846
163.4639
-164.8778
-163.0024
-168.6635
117.8550
118.0235
116.8530
-1.4792
17.7644
31.2770
13.2643
3.9152
-13.7275
118.4473
122.6983
125.2850
-214.5729
-213.3483
-220.6347
39.1866
34.0974
25.5263
-15.8427
4.6092
23.4756
9.1060
-6.1997
-28.7119
117.9746
124.7456
126.9651
-161.9000
-158.2695
-166.6800
49.6290
43.6364
33.2887
0.7918
19.9363
35.2228
19.8490
-5.4932
-38.0439
208.2892
212.6363
207.5123
125.2643
120.8409
104.9398
263.0346
249.8872
232.3756
-25.4539
14.2277
31.8835
26.9733
4.4886
-52.1192
439.6754
411.7401
375.6202
484.7664
458.2978
420.8766
358.8994
277.0634
178.9575
-25.9145
-28.5899
-40.4887

SCALARS SigmaF13 float
LOOKUP_TABLE default
18.7270
125.2425
96.2411
11.5034
225.2319
165.2534
9.1095
202.9890
157.8990
14.6592
254.7308
215.5263
7.1541
214.5463
184.5005
-23930.7191
-22950.1942
-22329.0130
-24092.2282
-23106.7006
-22403.7571
-24075.3569
-23113.0514
-22429.0023
-24204.1781
-23208.7859
-22525.4592
-24235.6712
-23336.4884
-22515.7802
-52367.0584
-50707.3132
-48992.8644
-52416.0611
-50722.3869
-48997.1444
-52369.1390
-50673.1007
-48945.9257
-52294.8686
-50619.5068
-48920.4628
-52324.9212
-50595.6249
-48873.1885
-74565.6996
-72120.8773
-69709.1449
-74584.3855
-72121.4934
-69694.0148
-74577.8096
-72123.4839
-69694.1653
-74560.9644
-72111.8898
-69687.5581
-74579.8565
-72110.4270
-69662.1132
-90030.1132
-87049.3388
-84110.4133
-90067.5458
-87084.5693
-84136.5318
-90063.7838
-87086.9945
-84143.1989
-90064.6047
-87097.2503
-84158.2662
-90072.3196
-87098.3248
-84152.0258
-97573.3917
-94337.2815
-91133.8650
-97590.2343
-94359.0688
-91160.2765
-97582.3880
-94355.1319
-91159.6609
-97579.9518
-94358.8380
-91168.3484
-97564.5003
-94351.9897
-91168.5172
-96397.5812
-93177.1470
-89998.6372
-96394.9002
-93194.3701
-90030.1156
-96387.3239
-93192.0025
-90032.0187
-96386.0012
-93196.2373
-90039.9350
-96349.1546
-93184.6679
-90049.0645
-86620.5697
-83705.8853
-80833.1137
-86597.8400
-83715.9656
-80867.8801
-86591.0148
-83714.4867
-80871.8091
-86590.9175
-83718.4072
-80877.8840
-86536.7657
-83702.8581
-80894.6062
-69114.5086
-66766.7716
-64457.2838
-69074.6844
-66768.4448
-64490.9923
-69068.8375
-66767.5760
-64495.8187
-69070.0312
-66770.5766
-64499.1126
-69003.2531
-66752.3954
-64521.8649
-45441.2977
-43869.8871
-42329.8328
-45388.0637
-43863.2464
-42359.5690
-45384.3519
-43863.6102
-42365.3960
-45387.0334
-43865.7539
-42365.9733
-45313.6343
-43846.6486
-42392.8776
-17712.9223
-17058.1570
-16424.9396
-17651.4608
-17044.0857
-16448.3264
-17650.4698
-17045.9385
-16454.9426
-17654.6131
-17047.2646
-16452.9972
-17581.2309
-17029.0444
-16481.7749
11595.9603
11275.7221
10945.6494
11660.1999
11295.9642
10930.6658
11658.2628
11292.6474
10923.6983
11652.7473
11291.9725
10927.6954
11719.3692
11307.4385
10899.3251
39870.1689
38603.4595
37339.5075
39931.4552
38628.0533
37334.2397
39926.7816
38623.6101
37327.6060
39920.4308
38623.7665
37333.4965
39974.6009
38635.3821
37308.4005
64585.4465
62485.2288
60400.0793
64638.5829
62512.2478
60405.2639
64632.7023
62508.2554
60400.8064
64627.7973
62510.9683
60409.8691
64665.9254
62519.0662
60391.6912
83536.8147
80790.7495
78070.8020
83577.2970
80818.1146
78086.3871
83571.5375
80815.6081
78085.0314
83569.6707
80821.2946
78096.5768
83588.7649
80824.9769
78086.4588
95038.0340
91891.8697
88780.8281
95061.8826
91916.6263
88804.6435
95054.8566
91913.4090
88803.1053
95052.9525
91917.6208
88811.1554
95048.9712
91913.9886
88806.4694
98058.5135
94792.6643
91567.0333
98064.4395
94812.5332
91595.4945
98057.2053
94809.1683
91595.8052
98054.5387
94813.4211
91604.1567
98023.4224
94801.9239
91612.4723
92323.1932
89226.3471
86169.1892
92316.1581
89243.0680
86207.5570
92314.6052
89246.4160
86217.2137
92316.8193
89257.3410
86240.1177
92265.0346
89247.0676
86268.0644
78406.1077
75749.7174
73125.2187
78359.1497
75742.9961
73146.0557
78305.5089
75699.7568
73113.0727
78248.4039
75650.9727
73071.6717
78135.8261
75585.9252
73022.0294
57862.2299
55885.0210
53960.6046
57745.1420
55835.4325
53972.6867
57544.0655
55644.7041
53782.9163
57332.8160
55440.9527
53564.8161
57222.7949
55393.0869
35703.2972
31563.8913
30002.2400
29257.2533