# vtk DataFile Version 2.0
VTK from Matlab
ASCII

DATASET UNSTRUCTURED_GRID
POINTS 1323 float
0.000 0.000 0.000
0.000 0.000 0.250
0.000 0.000 0.500
0.000 0.500 0.000
0.000 0.500 0.250
0.000 0.500 0.500
0.000 1.000 0.000
0.000 1.000 0.250
0.000 1.000 0.500
0.000 1.500 0.000
0.000 1.500 0.250
0.000 1.500 0.500
0.000 2.000 0.000
0.000 2.000 0.250
0.000 2.000 0.500
0.000 2.500 0.000
0.000 2.500 0.250
0.000 2.500 0.500
0.000 3.000 0.000
0.000 3.000 0.250
0.000 3.000 0.500
0.000 3.500 0.000
0.000 3.500 0.250
0.000 3.500 0.500
0.000 4.000 0.000
0.000 4.000 0.250
0.000 4.000 0.500
0.000 4.500 0.000
0.000 4.500 0.250
0.000 4.500 0.500
0.000 5.000 0.000
0.000 5.000 0.250
0.000 5.000 0.500
0.000 5.500 0.000
0.000 5.500 0.250
0.000 5.500 0.500
0.000 6.000 0.000
0.000 6.000 0.250
0.000 6.000 0.500
0.000 6.500 0.000
0.000 6.500 0.250
0.000 6.500 0.500
0.000 7.000 0.000
0.000 7.000 0.250
0.000 7.000 0.500
0.000 7.500 0.000
0.000 7.500 0.250
0.000 7.500 0.500
0.000 8.000 0.000
0.000 8.000 0.250
0.000 8.000 0.500
0.000 8.500 0.000
0.000 8.500 0.250
0.000 8.500 0.500
0.000 9.000 0.000
0.000 9.000 0.250
0.000 9.000 0.500
0.000 9.500 0.000
0.000 9.500 0.250
0.000 9.500 0.500
0.000 10.000 0.000
0.000 10.000 0.250
0.000 10.000 0.500
0.585 0.000 0.101
0.527 0.000 0.294
0.478 0.000 0.537
0.585 0.500 0.101
0.527 0.500 0.294
0.478 0.499 0.537
0.585 1.000 0.103
0.527 1.000 0.294
0.477 0.999 0.539
0.585 1.500 0.104
0.527 1.499 0.297
0.476 1.499 0.541
0.586 2.000 0.108
0.527 2.000 0.298
0.476 2.000 0.542
0.587 2.503 0.111
0.527 2.502 0.300
0.476 2.502 0.542
0.587 3.006 0.112
0.527 3.005 0.302
0.475 3.004 0.544
0.587 3.508 0.113
0.527 3.508 0.302
0.475 3.508 0.545
0.586 4.010 0.112
0.527 4.011 0.302
0.475 4.011 0.544
0.586 4.513 0.111
0.527 4.514 0.301
0.476 4.515 0.543
0.585 5.016 0.109
0.527 5.017 0.299
0.477 5.018 0.541
0.585 5.518 0.107
0.527 5.520 0.298
0.479 5.522 0.539
0.583 6.022 0.104
0.527 6.023 0.295
0.480 6.025 0.536
0.582 6.525 0.101
0.528 6.527 0.293
0.482 6.530 0.533
0.580 7.028 0.096
0.527 7.032 0.289
0.484 7.035 0.528
0.579 7.532 0.090
0.528 7.536 0.284
0.488 7.541 0.522
0.575 8.036 0.080
0.528 8.042 0.276
0.491 8.048 0.512
0.574 8.540 0.065
0.530 8.547 0.264
0.497 8.555 0.499
0.567 9.049 0.046
0.526 9.055 0.245
0.497 9.061 0.479
0.563 9.573 0.026
0.521 9.566 0.228
0.490 9.552 0.479
0.501 10.161 0.077
0.463 10.111 0.275
0.437 10.057 0.533
1.157 0.000 0.328
1.044 0.000 0.523
0.911 0.000 0.727
1.156 0.500 0.328
1.043 0.500 0.524
0.910 0.499 0.727
1.155 1.001 0.331
1.042 1.000 0.526
0.908 0.997 0.729
1.154 1.501 0.335
1.039 1.499 0.531
0.905 1.498 0.733
1.154 2.000 0.341
1.039 2.000 0.536
0.904 2.000 0.736
1.154 2.505 0.347
1.040 2.504 0.540
0.904 2.504 0.738
1.154 3.011 0.349
1.038 3.010 0.543
0.903 3.009 0.741
1.153 3.515 0.350
1.037 3.515 0.544
0.902 3.516 0.742
1.153 4.020 0.348
1.038 4.021 0.542
0.903 4.023 0.740
1.153 4.525 0.343
1.039 4.527 0.538
0.906 4.529 0.737
1.153 5.031 0.338
1.041 5.033 0.533
0.909 5.036 0.733
1.153 5.537 0.331
1.043 5.540 0.527
0.912 5.543 0.728
1.154 6.043 0.322
1.045 6.047 0.519
0.917 6.051 0.721
1.153 6.550 0.311
1.047 6.555 0.509
0.921 6.560 0.713
1.154 7.058 0.298
1.050 7.063 0.497
0.927 7.069 0.703
1.153 7.566 0.281
1.052 7.573 0.481
0.934 7.582 0.689
1.155 8.075 0.258
1.058 8.084 0.459
0.943 8.095 0.670
1.154 8.589 0.228
1.061 8.598 0.428
0.950 8.610 0.643
1.150 9.111 0.194
1.060 9.114 0.392
0.951 9.119 0.614
1.115 9.663 0.182
1.028 9.645 0.375
0.922 9.625 0.602
1.020 10.222 0.239
0.941 10.169 0.420
0.843 10.112 0.640
1.624 0.000 0.716
1.466 0.000 0.861
1.290 0.000 1.034
1.623 0.500 0.717
1.465 0.499 0.863
1.289 0.498 1.035
1.620 1.001 0.721
1.462 0.999 0.865
1.285 0.996 1.038
1.617 1.501 0.725
1.457 1.499 0.872
1.280 1.496 1.043
1.614 2.000 0.734
1.456 2.000 0.877
1.279 2.000 1.047
1.612 2.508 0.741
1.455 2.507 0.882
1.279 2.506 1.051
1.611 3.016 0.743
1.452 3.015 0.885
1.276 3.014 1.054
1.610 3.522 0.743
1.452 3.523 0.885
1.276 3.524 1.054
1.611 4.030 0.738
1.453 4.032 0.881
1.279 4.034 1.051
1.613 4.538 0.731
1.457 4.541 0.875
1.283 4.545 1.045
1.617 5.046 0.721
1.461 5.050 0.866
1.289 5.055 1.038
1.620 5.555 0.710
1.466 5.560 0.856
1.295 5.566 1.029
1.624 6.066 0.695
1.471 6.071 0.843
1.302 6.077 1.017
1.628 6.576 0.679
1.477 6.583 0.827
1.310 6.590 1.003
1.632 7.089 0.658
1.483 7.096 0.808
1.317 7.105 0.986
1.638 7.602 0.634
1.491 7.611 0.785
1.327 7.622 0.964
1.644 8.118 0.603
1.498 8.129 0.755
1.337 8.141 0.935
1.650 8.638 0.565
1.506 8.647 0.718
1.345 8.659 0.900
1.641 9.173 0.529
1.501 9.172 0.680
1.340 9.174 0.862
1.601 9.716 0.507
1.464 9.697 0.659
1.302 9.672 0.849
1.501 10.283 0.540
1.372 10.230 0.694
1.212 10.167 0.886
1.980 0.000 1.208
1.787 0.000 1.313
1.571 0.000 1.425
1.979 0.500 1.209
1.785 0.499 1.313
1.570 0.498 1.426
1.974 1.001 1.212
1.781 0.999 1.316
1.565 0.995 1.429
1.970 1.501 1.217
1.774 1.498 1.322
1.558 1.496 1.434
1.964 2.000 1.225
1.771 2.000 1.328
1.556 2.000 1.438
1.960 2.510 1.232
1.768 2.509 1.333
1.555 2.508 1.441
1.958 3.021 1.233
1.765 3.020 1.335
1.552 3.019 1.444
1.958 3.530 1.231
1.765 3.531 1.333
1.552 3.533 1.443
1.961 4.040 1.225
1.769 4.043 1.328
1.557 4.046 1.438
1.966 4.551 1.216
1.775 4.555 1.319
1.563 4.560 1.430
1.973 5.063 1.203
1.783 5.068 1.308
1.571 5.074 1.421
1.980 5.576 1.188
1.791 5.582 1.294
1.580 5.589 1.408
1.988 6.090 1.171
1.799 6.096 1.278
1.589 6.104 1.393
1.996 6.606 1.150
1.808 6.613 1.258
1.599 6.621 1.375
2.004 7.123 1.127
1.818 7.130 1.235
1.609 7.140 1.353
2.013 7.642 1.099
1.827 7.651 1.208
1.620 7.661 1.327
2.021 8.163 1.066
1.838 8.172 1.175
1.630 8.183 1.294
2.027 8.690 1.028
1.845 8.696 1.136
1.638 8.704 1.257
2.019 9.224 0.989
1.840 9.221 1.098
1.632 9.218 1.220
1.979 9.772 0.961
1.803 9.749 1.071
1.592 9.719 1.201
1.862 10.332 0.972
1.696 10.274 1.079
1.493 10.207 1.211
2.192 0.000 1.776
1.981 0.000 1.825
1.742 0.000 1.882
2.191 0.500 1.777
1.979 0.499 1.826
1.740 0.497 1.883
2.185 1.001 1.779
1.974 0.998 1.828
1.735 0.994 1.884
2.180 1.500 1.783
1.965 1.497 1.832
1.726 1.495 1.888
2.171 2.000 1.790
1.959 2.000 1.837
1.723 2.000 1.892
2.164 2.512 1.795
1.956 2.511 1.841
1.722 2.510 1.895
2.163 3.026 1.795
1.952 3.026 1.842
1.718 3.025 1.896
2.163 3.538 1.792
1.954 3.540 1.839
1.719 3.542 1.894
2.169 4.052 1.785
1.959 4.055 1.832
1.725 4.059 1.887
2.177 4.567 1.774
1.968 4.571 1.822
1.733 4.576 1.879
2.186 5.083 1.761
1.978 5.088 1.809
1.743 5.093 1.867
2.196 5.599 1.745
1.988 5.605 1.794
1.754 5.611 1.852
2.207 6.118 1.725
1.999 6.124 1.775
1.765 6.130 1.834
2.217 6.638 1.704
2.010 6.643 1.754
1.776 6.651 1.813
2.227 7.160 1.678
2.020 7.166 1.729
1.787 7.173 1.788
2.236 7.683 1.650
2.030 7.689 1.700
1.798 7.697 1.760
2.245 8.209 1.617
2.040 8.215 1.667
1.808 8.222 1.727
2.252 8.737 1.579
2.047 8.739 1.631
1.816 8.744 1.690
2.245 9.273 1.540
2.045 9.266 1.593
1.813 9.260 1.654
2.207 9.818 1.504
2.009 9.792 1.559
1.772 9.758 1.626
2.087 10.380 1.490
1.897 10.319 1.548
1.664 10.247 1.617
2.253 0.000 2.380
2.035 0.000 2.374
1.790 0.000 2.365
2.252 0.500 2.380
2.033 0.498 2.374
1.789 0.497 2.365
2.245 1.000 2.381
2.027 0.998 2.374
1.783 0.994 2.366
2.239 1.500 2.383
2.017 1.496 2.376
1.772 1.494 2.366
2.227 2.000 2.387
2.010 2.000 2.379
1.768 2.000 2.370
2.218 2.515 2.391
2.005 2.514 2.382
1.767 2.513 2.372
2.217 3.032 2.390
2.001 3.032 2.381
1.762 3.031 2.370
2.218 3.548 2.385
2.004 3.549 2.376
1.765 3.552 2.366
2.226 4.065 2.378
2.011 4.068 2.369
1.771 4.071 2.359
2.235 4.584 2.367
2.021 4.588 2.358
1.781 4.592 2.349
2.246 5.104 2.353
2.032 5.108 2.345
1.792 5.112 2.336
2.258 5.625 2.336
2.044 5.629 2.329
1.804 5.634 2.320
2.269 6.147 2.317
2.056 6.151 2.309
1.816 6.156 2.301
2.280 6.671 2.293
2.067 6.675 2.286
1.828 6.679 2.278
2.290 7.196 2.267
2.077 7.200 2.260
1.838 7.204 2.252
2.299 7.723 2.238
2.087 7.726 2.231
1.849 7.730 2.223
2.308 8.251 2.205
2.096 8.253 2.199
1.859 8.257 2.191
2.316 8.781 2.169
2.105 8.780 2.164
1.868 8.781 2.158
2.313 9.315 2.130
2.105 9.306 2.127
1.867 9.297 2.123
2.279 9.862 2.088
2.073 9.833 2.089
1.828 9.796 2.089
2.157 10.421 2.045
1.961 10.356 2.048
1.721 10.281 2.053
2.154 0.000 2.979
1.946 0.000 2.916
1.711 0.000 2.845
2.154 0.499 2.979
1.944 0.498 2.916
1.710 0.496 2.845
2.147 1.000 2.978
1.939 0.997 2.915
1.704 0.993 2.843
2.140 1.499 2.978
1.928 1.496 2.913
1.692 1.493 2.841
2.126 2.000 2.978
1.919 2.000 2.914
1.688 2.000 2.842
2.115 2.518 2.979
1.913 2.516 2.915
1.686 2.515 2.843
2.114 3.039 2.976
1.909 3.038 2.911
1.681 3.037 2.839
2.115 3.558 2.970
1.912 3.559 2.905
1.684 3.561 2.833
2.123 4.080 2.962
1.919 4.082 2.897
1.691 4.084 2.825
2.133 4.602 2.952
1.930 4.604 2.886
1.701 4.607 2.814
2.144 5.126 2.938
1.941 5.128 2.872
1.713 5.131 2.800
2.156 5.650 2.921
1.953 5.652 2.856
1.725 5.655 2.783
2.168 6.176 2.900
1.965 6.178 2.835
1.737 6.180 2.763
2.179 6.703 2.876
1.977 6.704 2.811
1.749 6.705 2.739
2.189 7.231 2.849
1.987 7.232 2.785
1.759 7.233 2.713
2.199 7.760 2.819
1.997 7.760 2.756
1.770 7.761 2.684
2.210 8.289 2.787
2.008 8.289 2.725
1.781 8.289 2.655
2.221 8.818 2.754
2.019 8.816 2.693
1.792 8.814 2.625
2.223 9.354 2.716
2.023 9.343 2.659
1.794 9.331 2.593
2.196 9.899 2.668
1.997 9.868 2.615
1.761 9.830 2.552
2.083 10.459 2.598
1.892 10.392 2.551
1.660 10.314 2.493
1.904 0.000 3.533
1.719 0.000 3.418
1.511 0.000 3.288
1.903 0.499 3.533
1.717 0.498 3.417
1.510 0.496 3.287
1.896 1.000 3.529
1.712 0.997 3.414
1.504 0.992 3.283
1.889 1.499 3.526
1.701 1.495 3.408
1.493 1.492 3.276
1.874 2.000 3.522
1.691 2.000 3.405
1.488 2.000 3.276
1.861 2.522 3.517
1.685 2.519 3.403
1.485 2.518 3.275
1.861 3.046 3.513
1.680 3.045 3.396
1.481 3.042 3.267
1.862 3.569 3.506
1.683 3.569 3.389
1.483 3.569 3.259
1.869 4.095 3.497
1.690 4.095 3.380
1.491 4.095 3.250
1.878 4.621 3.486
1.701 4.621 3.369
1.501 4.622 3.238
1.889 5.148 3.472
1.712 5.148 3.355
1.512 5.148 3.224
1.901 5.676 3.454
1.724 5.675 3.337
1.524 5.675 3.206
1.913 6.204 3.433
1.735 6.203 3.316
1.536 6.202 3.185
1.924 6.733 3.408
1.747 6.732 3.292
1.548 6.730 3.161
1.936 7.262 3.381
1.758 7.260 3.265
1.559 7.258 3.135
[...]
POINT_DATA 1323
SCALARS ux float
LOOKUP_TABLE default
0.0000
0.0000
0.0000
0.0000
0.0000
0.0000
0.0000
0.0000
0.0000
0.0000
0.0000
0.0000
0.0000
0.0000
0.0000
0.0000
0.0000
0.0000
0.0000
0.0000
0.0000
0.0000
0.0000
0.0000
0.0000
0.0000
0.0000
0.0000
0.0000
0.0000
0.0000
0.0000
0.0000
0.0000
0.0000
0.0000
0.0000
0.0000
0.0000
0.0000
0.0000
0.0000
0.0000
0.0000
0.0000
0.0000
0.0000
0.0000
0.0000
0.0000
0.0000
0.0000
0.0000
0.0000
0.0000
0.0000
0.0000
0.0000
0.0000
0.0000
0.0000
0.0000
0.0000
0.0846
0.0273
-0.0221
0.0846
0.0274
-0.0222
0.0846
0.0269
-0.0232
0.0848
0.0266
-0.0244
0.0858
0.0268
-0.0245
0.0871
0.0273
-0.0241
0.0869
0.0268
-0.0251
0.0869
0.0268
-0.0252
0.0865
0.0267
-0.0250
0.0862
0.0270
-0.0239
0.0853
0.0269
-0.0230
0.0847
0.0273
-0.0213
0.0833
0.0271
-0.0200
0.0823
0.0276
-0.0177
0.0801
0.0271
-0.0160
0.0788
0.0282
-0.0123
0.0753
0.0276
-0.0093
0.0739
0.0297
-0.0034
0.0666
0.0259
-0.0033
0.0633
0.0210
-0.0097
0.0007
-0.0368
-0.0632
0.1566
0.0442
-0.0891
0.1563
0.0434
-0.0899
0.1551
0.0421
-0.0921
0.1540
0.0394
-0.0954
0.1541
0.0395
-0.0957
0.1542
0.0397
-0.0957
0.1536
0.0380
-0.0974
0.1526
0.0374
-0.0981
0.1529
0.0381
-0.0966
0.1529
0.0392
-0.0945
0.1534
0.0411
-0.0910
0.1534
0.0426
-0.0876
0.1538
0.0450
-0.0830
0.1533
0.0467
-0.0787
0.1537
0.0498
-0.0726
0.1532
0.0524
-0.0663
0.1548
0.0578
-0.0571
0.1536
0.0607
-0.0498
0.1496
0.0602
-0.0489
0.1147
0.0284
-0.0777
0.0199
-0.0594
-0.1569
0.1238
-0.0337
-0.2099
0.1233
-0.0347
-0.2109
0.1200
-0.0377
-0.2145
0.1172
-0.0426
-0.2198
0.1143
-0.0444
-0.2209
0.1122
-0.0451
-0.2207
0.1107
-0.0481
-0.2236
0.1097
-0.0483
-0.2237
0.1110
-0.0467
-0.2213
0.1135
-0.0431
-0.2168
0.1165
-0.0391
-0.2114
0.1202
-0.0340
-0.2049
0.1237
-0.0291
-0.1982
0.1281
-0.0231
-0.1905
0.1323
-0.0172
-0.1825
0.1385
-0.0093
-0.1730
0.1442
-0.0015
-0.1631
0.1501
0.0061
-0.1554
0.1408
0.0007
-0.1599
0.1006
-0.0358
-0.1984
0.0006
-0.1284
-0.2885
-0.0199
-0.2129
-0.4287
-0.0207
-0.2145
-0.4301
-0.0255
-0.2186
-0.4346
-0.0301
-0.2260
-0.4422
-0.0359
-0.2294
-0.4440
-0.0404
-0.2315
-0.4445
-0.0417
-0.2351
-0.4480
-0.0423
-0.2346
-0.4475
-0.0387
-0.2309
-0.4433
-0.0337
-0.2250
-0.4369
-0.0270
-0.2175
-0.4288
-0.0200
-0.2095
-0.4200
-0.0121
-0.2006
-0.4105
-0.0044
-0.1919
-0.4009
0.0041
-0.1823
-0.3908
0.0125
-0.1728
-0.3804
0.0214
-0.1625
-0.3698
0.0266
-0.1553
-0.3624
0.0185
-0.1599
-0.3676
-0.0212
-0.1969
-0.4076
-0.1385
-0.3039
-0.5071
-0.3079
-0.5194
-0.7580
-0.3087
-0.5212
-0.7595
-0.3146
-0.5261
-0.7649
-0.3203
-0.5351
-0.7742
-0.3292
-0.5406
-0.7772
-0.3360
-0.5439
-0.7781
-0.3371
-0.5478
-0.7822
-0.3366
-0.5460
-0.7807
-0.3309
-0.5406
-0.7751
-0.3232
-0.5321
-0.7667
-0.3138
-0.5224
-0.7566
-0.3036
-0.5116
-0.7457
-0.2933
-0.5008
-0.7346
-0.2829
-0.4900
-0.7236
-0.2733
-0.4797
-0.7128
-0.2636
-0.4697
-0.7023
-0.2552
-0.4601
-0.6917
-0.2485
-0.4525
-0.6842
-0.2550
-0.4554
-0.6874
-0.2929
-0.4911
-0.7280
-0.4133
-0.6033
-0.8364
-0.7474
-0.9655
-1.2097
-0.7482
-0.9674
-1.2112
-0.7547
-0.9725
-1.2170
-0.7612
-0.9830
-1.2277
-0.7729
-0.9901
-1.2316
-0.7821
-0.9948
-1.2330
-0.7827
-0.9988
-1.2376
-0.7815
-0.9962
-1.2353
-0.7742
-0.9893
-1.2285
-0.7649
-0.9794
-1.2189
-0.7538
-0.9681
-1.2076
-0.7423
-0.9562
-1.1956
-0.7308
-0.9444
-1.1838
-0.7200
-0.9332
-1.1723
-0.7100
-0.9229
-1.1617
-0.7009
-0.9133
-1.1514
-0.6920
-0.9037
-1.1410
-0.6842
-0.8949
-1.1323
-0.6870
-0.8946
-1.1332
-0.7205
-0.9271
-1.1718
-0.8430
-1.0393
-1.2789
-1.3456
-1.5538
-1.7886
-1.3462
-1.5558
-1.7902
-1.3532
-1.5610
-1.7960
-1.3602
-1.5723
-1.8076
-1.3743
-1.5809
-1.8122
-1.3854
-1.5868
-1.8142
-1.3861
-1.5910
-1.8190
-1.3847
-1.5880
-1.8164
-1.3769
-1.5806
-1.8090
-1.3672
-1.5702
-1.7989
-1.3556
-1.5586
-1.7871
-1.3439
-1.5465
-1.7750
-1.3321
-1.5346
-1.7628
-1.3211
-1.5234
-1.7514
-1.3109
-1.5130
-1.7406
-1.3008
-1.5031
-1.7301
-1.2904
-1.4923
-1.7188
-1.2791
-1.4809
-1.7080
-1.2771
-1.4767
-1.7056
-1.3041
-1.5031
-1.7389
-1.4168
-1.6079
-1.8400
-2.0961
-2.2808
-2.4888
-2.0966
-2.2826
-2.4901
-2.1038
-2.2878
-2.4958
-2.1108
-2.2992
-2.5073
-2.1263
-2.3086
-2.5123
-2.1385
-2.3151
-2.5145
-2.1394
-2.3195
-2.5194
-2.1384
-2.3166
-2.5166
-2.1309
-2.3096
-2.5094
-2.1217
-2.2995
-2.4994
-2.1106
-2.2883
-2.4879
-2.0990
-2.2764
-2.4758
-2.0872
-2.2646
-2.4638
-2.0755
-2.2529
-2.4521
-2.0639
-2.2417
-2.4408
-2.0518
-2.2300
-2.4292
-2.0382
-2.2168
-2.4163
-2.0230
-2.2023
-2.4034
-2.0148
-2.1929
-2.3969
-2.0320
-2.2112
-2.4228
-2.1268
-2.2988
-2.5082
-2.9835
-3.1311
-3.2980
-2.9839
-3.1328
-3.2993
-2.9906
-3.1374
-3.3041
-2.9972
-3.1480
-3.3145
-3.0120
-3.1568
-3.3191
-3.0240
-3.1632
-3.3214
-3.0249
-3.1671
-3.3254
-3.0242
-3.1645
-3.3227
-3.0174
-3.1580
-3.3157
-3.0090
-3.1489
-3.3064
-2.9985
-3.1382
-3.2953
-2.9873
-3.1268
-3.2836
-2.9752
-3.1147
-3.2715
-2.9625
-3.1024
-3.2594
-2.9490
-3.0896
-3.2471
-2.9342
-3.0758
-3.2341
-2.9174
-3.0601
-3.2196
-2.8983
-3.0425
-3.2042
-2.8844
-3.0287
-3.1941
-2.8896
-3.0361
-3.2099
-2.9586
-3.1010
-3.2745
-3.9812
-4.0815
-4.1949
-3.9815
-4.0827
-4.1956
-3.9868
-4.0862
-4.1992
-3.9919
-4.0942
-4.2068
-4.0038
-4.1013
-4.2105
-4.0133
-4.1061
-4.2120
-4.0137
-4.1089
-4.2145
-4.0126
-4.1060
-4.2114
-4.0065
-4.1001
-4.2049
-3.9987
-4.0916
-4.1960
-3.9890
-4.0817
-4.1856
-3.9779
-4.0704
-4.1742
-3.9656
-4.0583
-4.1621
-3.9521
-4.0452
-4.1494
-3.9372
-4.0312
-4.1361
-3.9206
-4.0158
-4.1220
-3.9018
-3.9984
-4.1063
-3.8810
-3.9795
-4.0900
-3.8627
-3.9623
-4.0767
-3.8569
-3.9597
-4.0820
-3.8954
-3.9963
-4.1203
-5.0543
-5.0999
-5.1517
-5.0544
-5.1005
-5.1520
-5.0570
-5.1020
-5.1534
-5.0596
-5.1060
-5.1569
-5.0662
-5.1098
-5.1587
-5.0712
-5.1122
-5.1593
-5.0703
-5.1123
-5.1591
-5.0679
-5.1089
-5.1552
-5.0620
-5.1029
-5.1488
-5.0546
-5.0950
-5.1406
-5.0452
-5.0855
-5.1307
-5.0345
-5.0746
-5.1197
-5.0222
-5.0624
-5.1075
-5.0086
-5.0491
-5.0944
-4.9934
-5.0346
-5.0805
-4.9767
-5.0188
-5.0657
-4.9584
-5.0017
-5.0499
-4.9385
-4.9833
-5.0336
-4.9195
-4.9658
-5.0190
-4.9052
-4.9543
-5.0133
-4.9128
-4.9625
-5.0239
-6.1618
-6.1497
-6.1360
-6.1616
-6.1493
-6.1356
-6.1607
-6.1485
-6.1345
-6.1599
-6.1470
-6.1327
-6.1595
-6.1466
-6.1323
-6.1585
-6.1457
-6.1314
-6.1558
-6.1425
-6.1279
-6.1512
-6.1378
-6.1230
-6.1453
-6.1316
-6.1166
-6.1377
-6.1239
-6.1088
-6.1286
-6.1148
-6.0995
-6.1181
-6.1041
-6.0888
-6.1062
-6.0922
-6.0768
-6.0930
-6.0790
-6.0635
-6.0787
-6.0647
-6.0492
-6.0634
-6.0496
-6.0343
-6.0474
-6.0339
-6.0189
-6.0313
-6.0183
-6.0036
-6.0143
-6.0022
-5.9883
-5.9958
-5.9851
-5.9724
-5.9736
-5.9647
-5.9540
-7.2604
-7.1915
-7.1133
-7.2599
-7.1901
-7.1123
-7.2553
-7.1866
-7.1084
-7.2508
-7.1795
-7.1012
-7.2428
-7.1746
-7.0984
-7.2356
-7.1702
-7.0960
-7.2309
-7.1634
-7.0891
-7.2240
-7.1576
-7.0831
-7.2177
-7.1509
-7.0768
-7.2099
-7.1436
-7.0696
-7.2010
-7.1347
-7.0609
-7.1906
-7.1244
-7.0507
-7.1790
-7.1126
-7.0388
-7.1663
-7.0995
-7.0255
-7.1528
-7.0855
-7.0108
-7.1391
-7.0710
-6.9955
-7.1259
-7.0570
-6.9802
-7.1138
-7.0438
-6.9651
-7.1000
-7.0297
-6.9487
-7.0782
-7.0069
-6.9213
-7.0277
-6.9590
-6.8735
-8.3074
-8.1866
-8.0495
-8.3066
-8.1844
-8.0480
-8.2988
-8.1786
-8.0416
-8.2913
-8.1665
-8.0294
-8.2767
-8.1577
-8.0245
-8.2640
-8.1503
-8.0210
-8.2577
-8.1406
-8.0113
-8.2491
-8.1340
-8.0047
-8.2430
-8.1276
-7.9991
-8.2353
-8.1208
-7.9928
-8.2268
-8.1125
-7.9853
-8.2165
-8.1026
-7.9758
-8.2050
-8.0910
-7.9644
-8.1921
-8.0777
-7.9508
-8.1784
-8.0632
-7.9355
-8.1648
-8.0482
-7.9189
-8.1521
-8.0337
-7.9020
-8.1413
-8.0204
-7.8847
-8.1266
-8.0044
-7.8634
-8.0981
-7.9726
-7.8216
-8.0159
-7.8941
-7.7422
-9.2638
-9.0997
-8.9137
-9.2629
-9.0969
-8.9115
-9.2529
-9.0895
-8.9032
-9.2433
-9.0738
-8.8873
-9.2241
-9.0621
-8.8809
-9.2078
-9.0529
-8.8768
-9.2010
-9.0418
-8.8656
-9.1921
-9.0356
-8.8597
-9.1872
-9.0302
-8.8554
-9.1807
-9.0251
-8.8509
-9.1734
-9.0182
-8.8452
-9.1640
-9.0096
-8.8373
-9.1526
-8.9984
-8.8269
-9.1392
-8.9849
-8.8136
-9.1240
-8.9691
-8.7973
-9.1079
-8.9515
-8.7783
-9.0916
-8.9332
-8.7573
-9.0755
-8.9141
-8.7333
-9.0520
-8.8890
-8.7015
-9.0062
-8.8394
-8.6398
-8.8859
-8.7251
-8.5255
-10.0974
-9.9016
-9.6798
-10.0961
-9.8984
-9.6771
-10.0848
-9.8895
-9.6670
-10.0739
-9.8717
-9.6487
-10.0526
-9.8587
-9.6415
-10.0351
-9.8491
-9.6379
-10.0296
-9.8387
-9.6272
-10.0224
-9.8344
-9.6231
-10.0202
-9.8318
-9.6215
-10.0165
-9.8296
-9.6198
-10.0121
-9.8256
-9.6171
-10.0050
-9.8195
-9.6120
-9.9952
-9.8103
-9.6039
-9.9820
-9.7975
-9.5918
-9.9650
-9.7805
-9.5751
-9.9445
-9.7591
-9.5532
-9.9201
-9.7335
-9.5258
-9.8913
-9.7024
-9.4906
-9.8480
-9.6587
-9.4414
-9.7722
-9.5812
-9.3542
-9.6063
-9.4251
-9.2026
-10.7845
-10.5710
-10.3292
-10.7825
-10.5668
-10.3253
-10.7694
-10.5562
-10.3137
-10.7576
-10.5373
-10.2937
-10.7365
-10.5243
-10.2867
-10.7208
-10.5162
-10.2846
-10.7185
-10.5088
-10.2764
-10.7152
-10.5083
-10.2758
-10.7174
-10.5097
-10.2778
-10.7184
-10.5119
-10.2803
-10.7189
-10.5127
-10.2819
-10.7166
-10.5112
-10.2811
-10.7110
-10.5061
-10.2770
-10.7005
-10.4962
-10.2679
-10.6837
-10.4799
-10.2523
-10.6593
-10.4556
-10.2284
-10.6251
-10.4214
-10.1940
-10.5780
-10.3739
-10.1449
-10.5060
-10.3042
-10.0734
-10.3896
-10.1908
-9.9569
-10.1755
-9.9919
-9.7691
-11.3115
-11.0962
-10.8513
-11.3073
-11.0902
-10.8461
-11.2918
-11.0762
-10.8314
-11.2783
-11.0565
-10.8107
-11.2596
-11.0449
-10.8047
-11.2486
-11.0405
-10.8056
-11.2514
-11.0386
-10.8021
-11.2540
-11.0429
-10.8057
-11.2614
-11.0493
-10.8122
-11.2688
-11.0572
-10.8196
-11.2761
-11.0643
-10.8267
-11.2811
-11.0695
-10.8318
-11.2826
-11.0710
-10.8335
-11.2781
-11.0669
-10.8295
-11.2652
-11.0545
-10.8175
-11.2403
-11.0303
-10.7939
-11.1984
-10.9898
-10.7545
-11.1327
-10.9263
-10.6922
-11.0292
-10.8284
-10.5978
-10.8696
-10.6771
-10.4520
-10.6133
-10.4410
-10.2338
-11.6783
-11.4748
-11.2435
-11.6714
-11.4668
-11.2367
-11.6487
-11.4466
-11.2184
-11.6325
-11.4259
-11.1971
-11.6187
-11.4175
-11.1932
-11.6160
-11.4193
-11.1985
-11.6257
-11.4244
-11.2006
-11.6333
-11.4330
-11.2087
-11.6470
-11.4452
-11.2199
-11.6614
-11.4591
-11.2326
-11.6769
-11.4735
-11.2459
-11.6908
-11.4866
-11.2576
-11.7016
-11.4963
-11.2660
-11.7063
-11.5001
-11.2685
-11.7011
-11.4944
-11.2617
-11.6807
-11.4742
-11.2408
-11.6370
-11.4321
-11.1993
-11.5590
-11.3580
-11.1280
-11.4299
-11.2377
-11.0156
-11.2323
-11.0547
-10.8466
-10.9447
-10.7919
-10.6076
-11.8912
-11.7167
-11.5153
-11.8801
-11.7047
-11.5050
-11.8513
-11.6804
-11.4847
-11.8255
-11.6526
-11.4585
-11.8215
-11.6518
-11.4603
-11.8328
-11.6647
-11.4738
-11.8443
-11.6720
-11.4784
-11.8583
-11.6866
-11.4919
-11.8773
-11.7032
-11.5069
-11.8989
-11.7238
-11.5254
-11.9224
-11.7449
-11.5444
-11.9451
-11.7658
-11.5628
-11.9653
-11.7837
-11.5780
-11.9795
-11.7958
-11.5874
-11.9832
-11.7976
-11.5866
-11.9697
-11.7831
-11.5701
-11.9291
-11.7432
-11.5298
-11.8474
-11.6656
-11.4548
-11.7071
-11.5352
-11.3332
-11.4912
-11.3366
-11.1518
-11.1910
-11.0630
-10.9040

SCALARS uy float
LOOKUP_TABLE default
0.0000
0.0000
0.0000
0.0000
0.0000
0.0000
0.0000
0.0000
0.0000
0.0000
0.0000
0.0000
0.0000
0.0000
0.0000
0.0000
0.0000
0.0000
0.0000
0.0000
0.0000
0.0000
0.0000
0.0000
0.0000
0.0000
0.0000
0.0000
0.0000
0.0000
0.0000
0.0000
0.0000
0.0000
0.0000
0.0000
0.0000
0.0000
0.0000
0.0000
0.0000
0.0000
0.0000
0.0000
0.0000
0.0000
0.0000
0.0000
0.0000
0.0000
0.0000
0.0000
0.0000
0.0000
0.0000
0.0000
0.0000
0.0000
0.0000
0.0000
0.0000
0.0000
0.0000
0.0000
0.0000
0.0000
-0.0000
-0.0004
-0.0007
0.0004
-0.0003
-0.0015
0.0005
-0.0006
-0.0012
0.0000
0.0000
0.0000
0.0031
0.0022
0.0017
0.0056
0.0052
0.0044
0.0076
0.0077
0.0080
0.0102
0.0107
0.0113
0.0127
0.0137
0.0147
0.0156
0.0168
0.0180
0.0184
0.0200
0.0216
0.0216
0.0235
0.0254
0.0249
0.0273
0.0297
0.0285
0.0316
0.0349
0.0321
0.0363
0.0408
0.0358
0.0420
0.0482
0.0398
0.0468
0.0551
0.0491
0.0552
0.0611
0.0734
0.0655
0.0521
0.1605
0.1109
0.0570
0.0000
0.0000
0.0000
0.0002
-0.0005
-0.0012
0.0009
-0.0005
-0.0026
0.0006
-0.0010
-0.0024
0.0000
0.0000
0.0000
0.0055
0.0044
0.0036
0.0108
0.0102
0.0091
0.0151
0.0155
0.0160
0.0201
0.0213
0.0226
0.0253
0.0272
0.0294
0.0309
0.0333
0.0360
0.0369
0.0399
0.0432
0.0433
0.0468
0.0508
0.0504
0.0548
0.0596
0.0578
0.0632
0.0694
0.0662
0.0734
0.0815
0.0752
0.0840
0.0947
0.0888
0.0980
0.1096
0.1112
0.1139
0.1187
0.1626
0.1445
0.1253
0.2224
0.1691
0.1116
0.0000
0.0000
0.0000
0.0004
-0.0007
-0.0018
0.0013
-0.0007
-0.0038
0.0007
-0.0015
-0.0035
0.0000
0.0000
0.0000
0.0078
0.0065
0.0055
0.0157
0.0153
0.0139
0.0223
0.0232
0.0244
0.0299
0.0320
0.0344
0.0376
0.0408
0.0446
0.0463
0.0503
0.0549
0.0554
0.0601
0.0657
0.0655
0.0710
0.0775
0.0763
0.0827
0.0903
0.0886
0.0963
0.1053
0.1017
0.1108
0.1220
0.1183
0.1286
0.1415
0.1383
0.1468
0.1591
0.1725
0.1721
0.1740
0.2161
0.1972
0.1721
0.2828
0.2300
0.1666
0.0000
0.0000
0.0000
0.0003
-0.0010
-0.0024
0.0012
-0.0011
-0.0048
0.0006
-0.0021
-0.0045
0.0000
0.0000
0.0000
0.0101
0.0087
0.0079
0.0205
0.0203
0.0192
0.0299
0.0313
0.0332
0.0403
0.0432
0.0465
0.0513
0.0555
0.0603
0.0633
0.0682
0.0739
0.0762
0.0820
0.0885
0.0902
0.0965
0.1038
0.1058
0.1129
0.1210
0.1226
0.1304
0.1395
0.1420
0.1506
0.1610
0.1633
0.1720
0.1828
0.1904
0.1961
0.2045
0.2237
0.2206
0.2179
0.2722
0.2485
0.2191
0.3318
0.2736
0.2074
0.0000
0.0000
0.0000
0.0000
-0.0014
-0.0028
0.0008
-0.0016
-0.0057
0.0002
-0.0028
-0.0054
0.0000
0.0000
0.0000
0.0124
0.0110
0.0103
0.0258
0.0259
0.0250
0.0381
0.0398
0.0422
0.0521
0.0554
0.0590
0.0666
0.0709
0.0761
0.0825
0.0875
0.0934
0.0993
0.1047
0.1113
0.1178
0.1236
0.1304
0.1375
0.1434
0.1506
0.1596
0.1657
0.1731
0.1828
0.1889
0.1968
0.2091
0.2147
0.2220
0.2368
0.2394
0.2441
0.2730
0.2665
0.2600
0.3177
0.2916
0.2584
0.3798
0.3187
0.2468
0.0000
0.0000
0.0000
-0.0003
-0.0017
-0.0032
0.0004
-0.0021
-0.0065
-0.0002
-0.0035
-0.0062
0.0000
0.0000
0.0000
0.0152
0.0136
0.0129
0.0318
0.0319
0.0308
0.0477
0.0492
0.0515
0.0653
0.0682
0.0714
0.0838
0.0876
0.0921
0.1035
0.1076
0.1124
0.1246
0.1288
0.1338
0.1469
0.1509
0.1556
0.1711
0.1748
0.1792
0.1963
0.1996
0.2037
0.2233
0.2264
0.2304
0.2507
0.2532
0.2567
0.2807
0.2802
0.2812
0.3153
0.3064
0.2969
0.3619
0.3327
0.2961
0.4212
0.3561
0.2811
0.0000
0.0000
0.0000
-0.0005
-0.0021
-0.0036
0.0001
-0.0025
-0.0073
-0.0005
-0.0043
-0.0072
0.0000
0.0000
0.0000
0.0183
0.0163
0.0154
0.0388
0.0383
0.0366
0.0581
0.0590
0.0605
0.0798
0.0817
0.0839
0.1020
0.1044
0.1074
0.1259
0.1282
0.1310
0.1504
0.1524
0.1550
0.1765
0.1780
0.1799
0.2032
0.2041
0.2055
0.2315
0.2319
0.2326
0.2596
0.2598
0.2605
0.2888
0.2886
0.2891
0.3181
0.3156
0.3142
0.3540
0.3431
0.3313
0.3992
0.3683
0.3297
0.4594
0.3923
0.3143
0.0000
0.0000
0.0000
-0.0006
-0.0024
-0.0040
0.0001
-0.0029
-0.0084
-0.0006
-0.0049
-0.0082
0.0000
0.0000
0.0000
0.0219
0.0192
0.0178
0.0461
0.0448
0.0419
0.0693
0.0690
0.0693
0.0947
0.0951
0.0954
0.1208
0.1213
0.1221
0.1478
0.1479
0.1481
0.1757
0.1752
0.1749
0.2040
0.2029
0.2017
0.2333
0.2315
0.2297
0.2624
0.2604
0.2582
0.2920
0.2900
0.2881
0.3208
0.3190
0.3175
0.3510
0.3472
0.3443
0.3859
0.3744
0.3618
0.4321
0.4005
0.3610
0.4914
0.4236
0.3453
0.0000
0.0000
0.0000
-0.0006
-0.0027
-0.0046
0.0003
-0.0032
-0.0095
-0.0007
-0.0056
-0.0094
0.0000
0.0000
0.0000
0.0254
0.0219
0.0198
0.0537
0.0513
0.0467
0.0802
0.0784
0.0770
0.1094
0.1079
0.1060
0.1384
0.1368
0.1352
0.1686
0.1663
0.1638
0.1985
0.1956
0.1924
0.2291
0.2255
0.2214
0.2592
0.2552
0.2507
0.2896
0.2855
0.2810
0.3189
0.3154
0.3118
0.3483
0.3455
0.3428
0.3776
0.3735
0.3703
0.4131
0.4015
0.3890
0.4586
0.4276
0.3888
0.5190
0.4522
0.3746
0.0000
0.0000
0.0000
-0.0005
-0.0029
-0.0051
0.0007
-0.0034
-0.0107
-0.0005
-0.0061
-0.0105
0.0000
0.0000
0.0000
0.0287
0.0245
0.0216
0.0606
0.0569
0.0507
0.0903
0.0870
0.0838
0.1224
0.1190
0.1150
0.1543
0.1506
0.1466
0.1865
0.1820
0.1769
0.2186
0.2134
0.2076
0.2501
0.2444
0.2379
0.2814
0.2755
0.2689
0.3118
0.3063
0.3001
0.3416
0.3371
0.3323
0.3703
0.3671
0.3640
0.3999
0.3958
0.3927
0.4345
0.4237
0.4121
0.4804
0.4506
0.4132
0.5412
0.4763
0.4010
0.0000
0.0000
0.0000
-0.0004
-0.0030
-0.0056
0.0011
-0.0035
-0.0118
-0.0004
-0.0067
-0.0116
0.0000
0.0000
0.0000
0.0314
0.0265
0.0229
0.0664
0.0616
0.0540
0.0984
0.0937
0.0891
0.1332
0.1282
0.1223
0.1670
0.1615
0.1556
0.2013
0.1950
0.1877
0.2345
0.2275
0.2197
0.2674
0.2600
0.2515
0.2991
0.2917
0.2834
0.3301
0.3234
0.3158
0.3596
0.3543
0.3487
0.3887
0.3850
0.3814
0.4177
0.4137
0.4107
0.4525
0.4421
0.4311
0.4978
0.4692
0.4332
0.5595
0.4968
0.4235
0.0000
0.0000
0.0000
-0.0003
-0.0031
-0.0059
0.0012
-0.0037
-0.0125
-0.0002
-0.0069
-0.0122
0.0000
0.0000
0.0000
0.0334
0.0280
0.0240
0.0703
0.0647
0.0563
0.1043
0.0987
0.0931
0.1406
0.1346
0.1275
0.1762
0.1696
0.1623
0.2117
0.2041
0.1954
0.2464
0.2381
0.2287
0.2801
0.2713
0.2613
0.3129
0.3041
0.2943
0.3442
0.3362
0.3273
0.3744
0.3680
0.3611
0.4033
0.3988
0.3943
0.4327
0.4280
0.4243
0.4672
0.4566
0.4453
0.5127
0.4842
0.4482
0.5744
0.5126
0.4402
0.0000
0.0000
0.0000
-0.0003
-0.0033
-0.0060
0.0013
-0.0038
-0.0128
-0.0003
-0.0072
-0.0126
0.0000
0.0000
0.0000
0.0342
0.0287
0.0245
0.0723
0.0665
0.0577
0.1070
0.1011
0.0952
0.1445
0.1381
0.1306
0.1809
0.1738
0.1660
0.2178
0.2095
0.2002
0.2533
0.2442
0.2341
0.2883
0.2786
0.2676
0.3219
0.3121
0.3010
0.3545
0.3452
0.3348
0.3853
0.3774
0.3688
0.4153
0.4090
0.4024
0.4451
0.4385
0.4327
0.4803
0.4676
0.4540
0.5256
0.4952
0.4568
0.5867
0.5236
0.4490
0.0000
0.0000
0.0000
-0.0004
-0.0033
-0.0060
0.0010
-0.0039
-0.0128
-0.0004
-0.0072
-0.0125
0.0000
0.0000
0.0000
0.0341
0.0287
0.0247
0.0718
0.0664
0.0580
0.1067
0.1013
0.0958
0.1442
0.1382
0.1312
0.1812
0.1744
0.1670
0.2184
0.2104
0.2014
0.2550
0.2459
0.2358
0.2909
0.2808
0.2695
0.3260
0.3154
0.3035
0.3598
0.3492
0.3373
0.3923
0.3824
0.3715
0.4235
0.4146
0.4049
0.4550
0.4448
0.4349
0.4910
0.4742
0.4556
0.5367
0.5015
0.4574
0.5954
0.5275
0.4470
0.0000
0.0000
0.0000
-0.0006
-0.0033
-0.0059
0.0008
-0.0039
-0.0124
-0.0006
-0.0071
-0.0122
0.0000
0.0000
0.0000
0.0327
0.0279
0.0244
0.0693
0.0648
0.0575
0.1031
0.0987
0.0945
0.1400
0.1352
0.1296
0.1763
0.1708
0.1649
0.2136
0.2068
0.1992
0.2504
0.2423
0.2333
0.2873
0.2778
0.2671
0.3235
0.3128
0.3009
0.3593
0.3476
0.3346
0.3936
0.3815
0.3682
0.4272
0.4146
0.4008
0.4605
0.4453
0.4294
0.4981
0.4747
0.4484
0.5432
0.5005
0.4472
0.5973
0.5212
0.4307
0.0000
0.0000
0.0000
-0.0004
-0.0031
-0.0058
0.0008
-0.0038
-0.0121
-0.0004
-0.0067
-0.0116
0.0000
0.0000
0.0000
0.0305
0.0266
0.0241
0.0645
0.0615
0.0560
0.0968
0.0942
0.0920
0.1317
0.1291
0.1258
0.1669
0.1636
0.1602
0.2030
0.1985
0.1934
0.2395
0.2335
0.2268
0.2764
0.2686
0.2599
0.3136
0.3038
0.2930
0.3507
0.3388
0.3257
0.3875
0.3734
0.3581
0.4234
0.4069
0.3887
0.4593
0.4378
0.4148
0.4978
0.4662
0.4303
0.5410
0.4885
0.4237
0.5867
0.4996
0.3967
0.0000
0.0000
0.0000
0.0005
-0.0027
-0.0059
0.0019
-0.0031
-0.0115
-0.0000
-0.0062
-0.0113
0.0000
0.0000
0.0000
0.0273
0.0246
0.0234
0.0588
0.0577
0.0545
0.0884
0.0881
0.0884
0.1211
0.1211
0.1208
0.1537
0.1534
0.1533
0.1878
0.1865
0.1850
0.2223
0.2196
0.2167
0.2582
0.2534
0.2481
0.2948
0.2875
0.2794
0.3325
0.3219
0.3102
0.3706
0.3560
0.3401
0.4090
0.3892
0.3674
0.4469
0.4192
0.3891
0.4859
0.4454
0.3991
0.5247
0.4614
0.3845
0.5578
0.4589
0.3431
0.0000
0.0000
0.0000
0.0023
-0.0017
-0.0060
0.0035
-0.0022
-0.0114
0.0013
-0.0051
-0.0105
0.0000
0.0000
0.0000
0.0243
0.0230
0.0234
0.0525
0.0537
0.0531
0.0801
0.0823
0.0854
0.1095
0.1125
0.1156
0.1391
0.1422
0.1459
0.1697
0.1723
0.1752
0.2012
0.2026
0.2044
0.2338
0.2333
0.2329
0.2679
0.2646
0.2610
0.3036
0.2961
0.2880
0.3409
0.3277
0.3134
0.3794
0.3585
0.3354
0.4181
0.3860
0.3506
0.4556
0.4076
0.3528
0.4873
0.4149
0.3280
0.5042
0.3959
0.2699
0.0000
0.0000
0.0000
0.0050
-0.0009
-0.0070
0.0069
-0.0009
-0.0117
0.0023
-0.0048
-0.0112
0.0000
0.0000
0.0000
0.0214
0.0220
0.0241
0.0487
0.0521
0.0543
0.0737
0.0783
0.0842
0.0997
0.1059
0.1125
0.1255
0.1325
0.1405
0.1521
0.1592
0.1671
0.1790
0.1856
0.1929
0.2068
0.2118
0.2173
0.2354
0.2376
0.2402
0.2656
0.2633
0.2609
0.2976
0.2884
0.2784
0.3317
0.3123
0.2909
0.3667
0.3327
0.2951
0.3996
0.3460
0.2855
0.4215
0.3424
0.2492
0.4198
0.3061
0.1753
0.0000
0.0000
0.0000
0.0020
-0.0046
-0.0114
0.0040
-0.0048
-0.0161
0.0025
-0.0050
-0.0121
0.0000
0.0000
0.0000
0.0249
0.0261
0.0285
0.0500
0.0541
0.0575
0.0721
0.0779
0.0852
0.0961
0.1040
0.1124
0.1190
0.1280
0.1383
0.1420
0.1517
0.1624
0.1640
0.1737
0.1845
0.1855
0.1943