# vtk DataFile Version 2.0
VTK from Matlab
ASCII

DATASET UNSTRUCTURED_GRID
POINTS 5043 float
0.000 0.000 0.000
0.000 0.000 0.500
0.000 0.000 1.000
0.000 0.033 0.000
-0.000 0.033 0.500
0.000 0.033 1.000
0.000 0.065 0.000
0.000 0.065 0.500
0.000 0.065 1.000
0.000 0.098 0.000
0.000 0.098 0.500
0.000 0.098 1.000
0.000 0.131 0.000
0.000 0.131 0.500
0.000 0.131 1.000
0.000 0.163 0.000
0.000 0.163 0.500
0.000 0.163 1.000
0.000 0.196 0.000
0.000 0.196 0.500
0.000 0.196 1.000
0.001 0.229 0.000
0.000 0.229 0.500
0.001 0.229 1.000
0.001 0.261 0.000
0.001 0.261 0.500
0.001 0.261 1.000
0.001 0.294 0.000
0.001 0.294 0.500
0.001 0.294 1.000
0.001 0.327 0.000
0.001 0.327 0.500
0.001 0.327 1.000
0.001 0.359 0.000
0.001 0.359 0.500
0.001 0.359 1.000
0.001 0.392 0.000
0.001 0.392 0.500
0.001 0.392 1.000
0.002 0.425 0.000
0.002 0.425 0.500
0.002 0.425 1.000
0.002 0.457 0.000
0.002 0.457 0.500
0.002 0.457 1.000
0.002 0.490 0.000
0.002 0.490 0.500
0.002 0.490 1.000
0.002 0.523 0.000
0.002 0.523 0.500
0.002 0.523 1.000
0.002 0.555 0.000
0.002 0.555 0.500
0.002 0.555 1.000
0.002 0.588 0.000
0.002 0.588 0.500
0.002 0.588 1.000
0.002 0.620 0.000
0.002 0.620 0.500
0.002 0.620 1.000
0.002 0.653 0.000
0.002 0.653 0.500
0.002 0.653 1.000
0.002 0.686 0.000
0.002 0.686 0.500
0.002 0.686 1.000
0.002 0.718 0.000
0.002 0.718 0.500
0.002 0.718 1.000
0.002 0.751 0.000
0.002 0.751 0.500
0.002 0.751 1.000
0.002 0.783 0.000
0.002 0.783 0.500
0.002 0.783 1.000
0.002 0.816 0.000
0.002 0.816 0.500
0.002 0.816 1.000
0.002 0.849 0.000
0.002 0.849 0.500
0.002 0.849 1.000
0.001 0.881 0.000
0.001 0.881 0.500
0.001 0.881 1.000
0.001 0.914 0.000
0.001 0.914 0.500
0.001 0.914 1.000
0.001 0.947 0.000
0.001 0.947 0.500
0.001 0.947 1.000
0.001 0.979 0.000
0.001 0.979 0.500
0.001 0.979 1.000
0.001 1.012 0.000
0.001 1.012 0.500
0.001 1.012 1.000
0.001 1.044 0.000
0.001 1.044 0.500
0.001 1.044 1.000
0.000 1.077 0.000
0.000 1.077 0.500
0.000 1.077 1.000
0.000 1.110 0.000
0.000 1.110 0.500
0.000 1.110 1.000
0.000 1.142 0.000
0.000 1.142 0.500
0.000 1.142 1.000
0.000 1.175 0.000
0.000 1.175 0.500
0.000 1.175 1.000
-0.000 1.207 0.000
-0.000 1.207 0.500
-0.000 1.207 1.000
-0.000 1.240 0.000
-0.000 1.240 0.500
-0.000 1.240 1.000
-0.000 1.273 0.000
-0.000 1.273 0.500
-0.000 1.273 1.000
-0.001 1.305 0.000
-0.000 1.305 0.500
-0.000 1.305 1.000
0.019 0.000 0.000
0.019 0.000 0.500
0.019 0.000 1.000
0.019 0.033 0.000
0.019 0.033 0.500
0.019 0.033 1.000
0.019 0.065 0.000
0.019 0.065 0.500
0.019 0.065 1.000
0.019 0.098 0.000
0.019 0.098 0.500
0.019 0.098 1.000
0.019 0.131 0.000
0.019 0.131 0.500
0.019 0.131 1.000
0.019 0.163 0.000
0.019 0.163 0.500
0.019 0.163 1.000
0.020 0.196 0.000
0.019 0.196 0.500
0.020 0.196 1.000
0.020 0.229 0.000
0.020 0.229 0.500
0.020 0.229 1.000
0.020 0.261 0.000
0.020 0.261 0.500
0.020 0.261 1.000
0.020 0.294 0.000
0.020 0.294 0.500
0.020 0.294 1.000
0.020 0.327 0.000
0.020 0.327 0.500
0.020 0.327 1.000
0.020 0.359 0.000
0.020 0.359 0.500
0.020 0.359 1.000
0.021 0.392 0.000
0.021 0.392 0.500
0.021 0.392 1.000
0.021 0.425 0.000
0.021 0.425 0.500
0.021 0.425 1.000
0.021 0.457 0.000
0.021 0.457 0.500
0.021 0.457 1.000
0.021 0.490 0.000
0.021 0.490 0.500
0.021 0.490 1.000
0.021 0.522 0.000
0.021 0.522 0.500
0.021 0.522 1.000
0.021 0.555 0.000
0.022 0.555 0.500
0.021 0.555 1.000
0.022 0.588 0.000
0.022 0.588 0.500
0.022 0.588 1.000
0.021 0.620 0.000
0.022 0.620 0.500
0.022 0.620 1.000
0.021 0.653 0.000
0.022 0.653 0.500
0.021 0.653 1.000
0.021 0.686 0.000
0.021 0.686 0.500
0.021 0.686 1.000
0.021 0.718 0.000
0.021 0.718 0.500
0.021 0.718 1.000
0.021 0.751 0.000
0.021 0.751 0.500
0.021 0.751 1.000
0.021 0.784 0.000
0.021 0.783 0.500
0.021 0.783 1.000
0.021 0.816 0.000
0.021 0.816 0.500
0.021 0.816 1.000
0.021 0.849 0.000
0.021 0.849 0.500
0.021 0.849 1.000
0.020 0.881 0.000
0.020 0.881 0.500
0.020 0.881 1.000
0.020 0.914 0.000
0.020 0.914 0.500
0.020 0.914 1.000
0.020 0.947 0.000
0.020 0.947 0.500
0.020 0.947 1.000
0.020 0.979 0.000
0.020 0.979 0.500
0.020 0.979 1.000
0.020 1.012 0.000
0.020 1.012 0.500
0.020 1.012 1.000
0.020 1.045 0.000
0.020 1.045 0.500
0.020 1.045 1.000
0.020 1.077 0.000
0.020 1.077 0.500
0.020 1.077 1.000
0.019 1.110 0.000
0.019 1.110 0.500
0.019 1.110 1.000
0.019 1.142 0.000
0.019 1.142 0.500
0.019 1.142 1.000
0.019 1.175 0.000
0.019 1.175 0.500
0.019 1.175 1.000
0.019 1.207 0.000
0.019 1.208 0.500
0.019 1.207 1.000
0.019 1.240 0.000
0.019 1.240 0.500
0.019 1.240 1.000
0.019 1.273 0.000
0.019 1.273 0.500
0.019 1.273 1.000
0.019 1.305 0.000
0.019 1.305 0.500
0.019 1.305 1.000
0.038 0.000 0.000
0.038 0.000 0.500
0.038 0.000 1.000
0.038 0.033 0.000
0.038 0.033 0.500
0.038 0.033 1.000
0.038 0.065 0.000
0.038 0.065 0.500
0.038 0.065 1.000
0.038 0.098 0.000
0.038 0.098 0.500
0.038 0.098 1.000
0.038 0.131 0.000
0.038 0.131 0.500
0.038 0.131 1.000
0.039 0.163 0.000
0.038 0.163 0.500
0.039 0.163 1.000
0.039 0.196 0.000
0.039 0.196 0.500
0.039 0.196 1.000
0.039 0.229 0.000
0.039 0.229 0.500
0.039 0.229 1.000
0.039 0.261 0.000
0.039 0.261 0.500
0.039 0.261 1.000
0.039 0.294 0.000
0.039 0.294 0.500
0.039 0.294 1.000
0.039 0.327 0.000
0.039 0.327 0.500
0.039 0.327 1.000
0.039 0.359 0.000
0.039 0.359 0.500
0.039 0.359 1.000
0.040 0.392 0.000
0.040 0.392 0.500
0.040 0.392 1.000
0.040 0.424 0.000
0.040 0.425 0.500
0.040 0.424 1.000
0.040 0.457 0.000
0.040 0.457 0.500
0.040 0.457 1.000
0.040 0.490 0.000
0.040 0.490 0.500
0.040 0.490 1.000
0.041 0.522 0.000
0.041 0.522 0.500
0.040 0.522 1.000
0.041 0.555 0.000
0.041 0.555 0.500
0.041 0.555 1.000
0.041 0.588 0.000
0.041 0.588 0.500
0.041 0.588 1.000
0.041 0.620 0.000
0.041 0.620 0.500
0.041 0.620 1.000
0.041 0.653 0.000
0.041 0.653 0.500
0.041 0.653 1.000
0.041 0.686 0.000
0.041 0.686 0.500
0.041 0.686 1.000
0.040 0.718 0.000
0.040 0.718 0.500
0.040 0.718 1.000
0.040 0.751 0.000
0.040 0.751 0.500
0.040 0.751 1.000
0.040 0.784 0.000
0.040 0.784 0.500
0.040 0.784 1.000
0.040 0.816 0.000
0.040 0.816 0.500
0.040 0.816 1.000
0.040 0.849 0.000
0.040 0.849 0.500
0.040 0.849 1.000
0.040 0.881 0.000
0.040 0.881 0.500
0.040 0.881 1.000
0.039 0.914 0.000
0.039 0.914 0.500
0.039 0.914 1.000
0.039 0.947 0.000
0.039 0.947 0.500
0.039 0.947 1.000
0.039 0.979 0.000
0.039 0.979 0.500
0.039 0.979 1.000
0.039 1.012 0.000
0.039 1.012 0.500
0.039 1.012 1.000
0.039 1.045 0.000
0.039 1.045 0.500
0.039 1.045 1.000
0.039 1.077 0.000
0.039 1.077 0.500
0.039 1.077 1.000
0.039 1.110 0.000
0.039 1.110 0.500
0.039 1.110 1.000
0.039 1.142 0.000
0.039 1.142 0.500
0.039 1.142 1.000
0.038 1.175 0.000
0.038 1.175 0.500
0.038 1.175 1.000
0.038 1.208 0.000
0.038 1.208 0.500
0.038 1.208 1.000
0.038 1.240 0.000
0.038 1.240 0.500
0.038 1.240 1.000
0.038 1.273 0.000
0.038 1.273 0.500
0.038 1.273 1.000
0.038 1.305 0.000
0.038 1.305 0.500
0.038 1.305 1.000
0.057 0.000 0.000
0.057 0.000 0.500
0.057 0.000 1.000
0.057 0.033 0.000
0.057 0.033 0.500
0.057 0.033 1.000
0.058 0.065 0.000
0.057 0.065 0.500
0.058 0.065 1.000
0.058 0.098 0.000
0.057 0.098 0.500
0.058 0.098 1.000
0.058 0.131 0.000
0.058 0.131 0.500
0.058 0.131 1.000
0.058 0.163 0.000
0.058 0.163 0.500
0.058 0.163 1.000
0.058 0.196 0.000
0.058 0.196 0.500
0.058 0.196 1.000
0.058 0.228 0.000
0.058 0.228 0.500
0.058 0.228 1.000
0.058 0.261 0.000
0.058 0.261 0.500
0.058 0.261 1.000
0.058 0.294 0.000
0.058 0.294 0.500
0.058 0.294 1.000
0.058 0.326 0.000
0.058 0.326 0.500
0.058 0.326 1.000
0.059 0.359 0.000
0.059 0.359 0.500
0.059 0.359 1.000
0.059 0.392 0.000
0.059 0.392 0.500
0.059 0.392 1.000
0.059 0.424 0.000
0.059 0.424 0.500
0.059 0.424 1.000
0.059 0.457 0.000
0.059 0.457 0.500
0.059 0.457 1.000
0.059 0.490 0.000
0.059 0.490 0.500
0.059 0.490 1.000
0.060 0.522 0.000
0.060 0.522 0.500
0.060 0.522 1.000
0.060 0.555 0.000
0.060 0.555 0.500
0.060 0.555 1.000
0.060 0.588 0.000
0.060 0.588 0.500
0.060 0.588 1.000
0.060 0.620 0.000
0.060 0.620 0.500
0.060 0.620 1.000
0.060 0.653 0.000
0.060 0.653 0.500
0.060 0.653 1.000
0.060 0.686 0.000
0.060 0.686 0.500
0.060 0.686 1.000
0.060 0.718 0.000
0.060 0.718 0.500
0.060 0.718 1.000
0.059 0.751 0.000
0.059 0.751 0.500
0.059 0.751 1.000
0.059 0.784 0.000
0.059 0.784 0.500
0.059 0.784 1.000
0.059 0.816 0.000
0.059 0.816 0.500
0.059 0.816 1.000
0.059 0.849 0.000
0.059 0.849 0.500
0.059 0.849 1.000
0.059 0.882 0.000
0.059 0.882 0.500
0.059 0.882 1.000
0.059 0.914 0.000
0.059 0.914 0.500
0.059 0.914 1.000
0.058 0.947 0.000
0.058 0.947 0.500
0.058 0.947 1.000
0.058 0.979 0.000
0.058 0.979 0.500
0.058 0.979 1.000
0.058 1.012 0.000
0.058 1.012 0.500
0.058 1.012 1.000
0.058 1.045 0.000
0.058 1.045 0.500
0.058 1.045 1.000
0.058 1.077 0.000
0.058 1.077 0.500
0.058 1.077 1.000
0.058 1.110 0.000
0.058 1.110 0.500
0.058 1.110 1.000
0.058 1.142 0.000
0.058 1.142 0.500
0.058 1.142 1.000
0.058 1.175 0.000
0.058 1.175 0.500
0.058 1.175 1.000
0.057 1.208 0.000
0.057 1.208 0.500
0.057 1.208 1.000
0.057 1.240 0.000
0.057 1.240 0.500
0.057 1.240 1.000
0.057 1.273 0.000
0.057 1.273 0.500
0.057 1.273 1.000
0.057 1.305 0.000
0.057 1.305 0.500
0.057 1.305 1.000
0.077 0.000 0.000
0.077 0.000 0.500
0.077 0.000 1.000
0.077 0.033 0.000
0.077 0.033 0.500
0.077 0.033 1.000
0.077 0.065 0.000
0.077 0.065 0.500
0.077 0.065 1.000
0.077 0.098 0.000
0.077 0.098 0.500
0.077 0.098 1.000
0.077 0.131 0.000
0.077 0.131 0.500
0.077 0.130 1.000
0.077 0.163 0.000
0.077 0.163 0.500
0.077 0.163 1.000
0.077 0.196 0.000
0.077 0.196 0.500
0.077 0.196 1.000
0.077 0.228 0.000
0.077 0.228 0.500
0.077 0.228 1.000
0.077 0.261 0.000
0.077 0.261 0.500
0.077 0.261 1.000
0.077 0.294 0.000
0.077 0.294 0.500
0.077 0.294 1.000
0.078 0.326 0.000
0.077 0.326 0.500
0.078 0.326 1.000
0.078 0.359 0.000
0.078 0.359 0.500
0.078 0.359 1.000
0.078 0.392 0.000
0.078 0.392 0.500
0.078 0.392 1.000
0.078 0.424 0.000
0.078 0.424 0.500
0.078 0.424 1.000
0.078 0.457 0.000
0.078 0.457 0.500
0.078 0.457 1.000
0.079 0.490 0.000
0.079 0.490 0.500
0.079 0.490 1.000
0.079 0.522 0.000
0.079 0.522 0.500
0.079 0.522 1.000
0.079 0.555 0.000
0.079 0.555 0.500
0.079 0.555 1.000
0.079 0.588 0.000
0.079 0.588 0.500
0.079 0.588 1.000
[...]
POINT_DATA 5043
SCALARS Presion float
LOOKUP_TABLE default
0.0000
0.0000
0.0000
0.0000
0.0000
0.0000
0.0000
0.0000
0.0000
0.0000
0.0000
0.0000
0.0000
0.0000
0.0000
0.0000
0.0000
0.0000
0.0000
0.0000
0.0000
0.0000
0.0000
0.0000
0.0000
0.0000
0.0000
0.0000
0.0000
0.0000
0.0000
0.0000
0.0000
0.0000
0.0000
0.0000
0.0000
0.0000
0.0000
0.0000
0.0000
0.0000
0.0000
0.0000
0.0000
0.0000
0.0000
0.0000
0.0000
0.0000
0.0000
0.0000
0.0000
0.0000
0.0000
0.0000
0.0000
0.0000
0.0000
0.0000
0.0000
0.0000
0.0000
0.0000
0.0000
0.0000
0.0000
0.0000
0.0000
0.0000
0.0000
0.0000
0.0000
0.0000
0.0000
0.0000
0.0000
0.0000
0.0000
0.0000
0.0000
0.0000
0.0000
0.0000
0.0000
0.0000
0.0000
0.0000
0.0000
0.0000
0.0000
0.0000
0.0000
0.0000
0.0000
0.0000
0.0000
0.0000
0.0000
0.0000
0.0000
0.0000
0.0000
0.0000
0.0000
0.0000
0.0000
0.0000
0.0000
0.0000
0.0000
0.0000
0.0000
0.0000
0.0000
0.0000
0.0000
0.0000
0.0000
0.0000
0.0000
0.0000
0.0000
987565.2061
987680.5125
987865.3268
987672.8805
987721.5434
987744.1465
987745.8275
987705.9976
987687.3735
987850.9781
987728.6759
987642.9170
987942.6098
987759.2944
987660.1549
988141.1612
987881.9635
987719.4798
988350.8463
988060.6245
987900.2478
988802.2542
988434.3325
988207.8238
989267.3310
988906.4770
988709.2859
990158.5866
989727.2271
989462.7639
991033.5229
990656.7674
990450.6708
992450.4160
992046.7073
991792.8918
993784.4236
993474.8664
993286.8622
995464.4101
995245.9104
995098.1494
997035.8691
996898.5208
996822.4723
998357.6554
998511.0591
998588.2270
999774.6929
999841.2557
999949.4341
1000298.8769
1000678.1489
1000976.7678
1001039.5939
1001282.5015
1001504.6976
1000758.7775
1001078.4657
1001377.2961
1000477.3720
1000773.6400
1000972.0035
999667.6192
999869.7931
1000010.3479
998748.3433
998917.3974
998997.8750
997758.5737
997830.7447
997866.0649
996758.4241
996789.6376
996792.5406
995853.7121
995833.0818
995817.5228
995002.5230
994966.8228
994940.3803
994309.8245
994246.0818
994207.0087
993678.3477
993617.6335
993582.3927
993230.4181
993154.0101
993108.9225
992833.0624
992771.3538
992739.5645
992620.0691
992554.0492
992516.3757
992441.9307
992396.6296
992375.9910
992414.0023
992376.4174
992356.4728
992404.3601
992387.4780
992383.2116
992473.0320
992475.9559
992481.2313
992552.0992
992568.2791
992583.3077
992622.5350
992663.4198
992692.0777
992705.1114
992747.0223
992773.6820
992713.1256
992763.2826
992801.9921
992721.8310
992780.2844
992829.3170
1975966.9996
1976018.4422
1976075.4612
1976057.3637
1976001.3384
1975990.5316
1976121.0963
1975994.9022
1975984.7319
1976242.3971
1976032.7652
1975978.9435
1976410.0630
1976137.6473
1976074.9386
1976720.2502
1976362.2844
1976256.8004
1977151.9415
1976758.5490
1976659.0896
1977908.7333
1977430.5538
1977276.6281
1978861.5083
1978401.8112
1978283.6315
1980388.5496
1979854.2669
1979661.2539
1982135.6486
1981695.7790
1981570.5451
1984618.3555
1984148.3165
1983935.0595
1987199.2319
1986899.7985
1986769.1503
1990308.8383
1990104.0151
1989932.2348
1993244.9019
1993238.9091
1993131.4488
1996070.8366
1996225.2359
1996191.8526
1998453.2140
1998667.0077
1998679.6051
1999914.9008
2000274.6811
2000461.0975
2000865.0459
2001140.0853
2001308.4742
2000554.4675
2000923.8073
2001214.5674
1999893.8757
2000156.7736
2000335.9845
1998390.2709
1998634.5814
1998824.6797
1996779.1842
1996904.9729
1996992.7279
1994897.2648
1994978.0088
1995052.5825
1993118.7648
1993116.3168
1993137.4456
1991401.1560
1991374.3314
1991385.7607
1989864.1233
1989802.9887
1989795.1140
1988529.7103
1988452.4813
1988434.4671
1987379.1557
1987300.2282
1987283.8770
1986491.6651
1986400.6112
1986369.8774
1985766.5433
1985696.2291
1985680.4724
1985317.2421
1985240.1984
1985208.0814
1984990.3363
1984947.1672
1984936.1924
1984898.0364
1984856.7208
1984832.0009
1984872.2184
1984867.7506
1984863.7788
1984989.0253
1984995.2428
1984985.7391
1985119.0587
1985152.6899
1985157.5563
1985272.0446
1985317.4807
1985327.5404
1985400.9230
1985451.9011
1985466.8200
1985446.8703
1985510.0640
1985546.2104
1985475.4534
1985550.1250
1985598.4935
2964928.2103
2964852.7648
2964869.5125
2964964.5966
2964861.5280
2964847.1502
2965022.7978
2964908.8423
2964894.5246
2965161.8517
2964995.1486
2964952.0279
2965373.9183
2965180.1762
2965139.3113
2965783.5424
2965532.0230
2965455.7512
2966383.3427
2966123.9592
2966061.3472
2967392.1432
2967075.9488
2966970.1995
2968750.8185
2968464.5408
2968392.8798
2970781.1853
2970448.4577
2970326.7796
2973296.8792
2973040.4230
2972970.5644
2976626.6117
2976357.4163
2976237.6248
2980393.8630
2980226.1749
2980140.3113
2984704.3313
2984574.2992
2984463.1604
2989023.5728
2988954.9788
2988840.2536
2993059.0841
2993062.1172
2993024.0633
2996431.4273
2996433.6889
2996397.0333
2998561.7754
2998694.9030
2998812.0501
2999707.4490
2999823.8071
2999941.7201
2999411.7720
2999623.4839
2999801.7673
2998317.3327
2998486.5356
2998639.4398
2996360.3882
2996505.7395
2996631.7209
2994031.6619
2994118.0266
2994214.0808
2991488.7688
2991532.8794
2991604.1441
2988992.9574
2988995.1755
2989028.5423
2986633.3408
2986618.4677
2986644.3974
2984495.0096
2984458.9561
2984465.3741
2982622.9573
2982579.6901
2982580.4805
2981021.1047
2980973.7119
2980970.6738
2979740.7896
2979687.9283
2979678.0167
2978732.5244
2978689.3732
2978684.7124
2978048.6592
2978003.5221
2977991.3076
2977599.4723
2977571.2844
2977566.8720
2977415.0137
2977389.6719
2977379.6675
2977387.8976
2977379.5772
2977376.1655
2977516.0707
2977513.7940
2977508.9865
2977703.3495
2977712.8447
2977712.6347
2977911.1945
2977929.5602
2977935.0386
2978091.4478
2978118.2292
2978126.8606
2978180.2627
2978227.9221
2978257.7759
2978214.8077
2978277.9583
2978310.8601
3954393.1119
3954305.9352
3954281.2285
3954423.9625
3954325.8117
3954288.8051
3954468.7043
3954376.3621
3954350.5367
3954613.5129
3954501.1638
3954458.9752
3954862.0813
3954741.8497
3954703.2591
3955335.1760
3955186.3956
3955126.5128
3956069.8904
3955918.8420
3955868.1241
3957264.4771
3957079.7413
3957001.1775
3958941.5385
3958776.1139
3958725.4347
3961387.1490
3961180.6850
3961092.5846
3964518.6069
3964364.6542
3964330.8519
3968620.5791
3968414.6018
3968330.6898
3973366.5787
3973226.4178
3973209.7306
3978788.5774
3978604.9333
3978533.6498
3984275.1486
3984127.3895
3984084.3708
3989407.6174
3989301.0765
3989266.8530
3993653.8525
3993565.8199
3993518.4540
3996418.6664
3996467.2057
3996525.3838
3997776.2359
3997835.6115
3997868.2378
3997459.0137
3997603.0078
3997729.7073
3995994.2257
3996107.8249
3996201.6800
3993532.0270
3993638.3275
3993760.9261
3990595.1273
3990653.4145
3990750.2534
3987436.6021
3987473.6045
3987556.6080
3984376.2153
3984375.6061
3984421.3191
3981473.2318
3981474.6628
3981511.3691
3978855.6124
3978833.8881
3978847.7214
3976531.3951
3976509.4945
3976522.3689
3974548.7612
3974518.1995
3974524.6199
3972933.9980
3972898.5979
3972899.0987
3971670.8419
3971639.4857
3971644.2996
3970788.4788
3970750.2655
3970745.2080
3970214.4134
3970188.5760
3970193.7748
3969956.6175
3969925.6525
3969920.1005
3969906.9281
3969889.5828
3969894.0650
3970048.8750
3970029.5523
3970025.1931
3970270.9604
3970265.6283
3970268.5361
3970533.9151
3970535.0193
3970534.7563
3970765.4713
3970782.4211
3970785.8073
3970904.3915
3970943.2860
3970956.0613
3970953.2479
3971006.0254
3971022.2235
4944396.5660
4944319.9055
4944273.4224
4944404.2880
4944334.5842
4944287.5671
4944457.4018
4944396.5923
4944359.5658
4944604.2560
4944533.0691
4944483.6194
4944872.5754
4944800.6171
4944762.0752
4945385.7895
4945289.4450
4945228.6955
4946188.4012
4946094.3874
4946054.8319
4947504.5395
4947374.1109
4947304.7120
4949371.4816
4949255.2020
4949228.9116
4952112.0307
4951947.7223
4951889.7605
4955684.8968
4955557.3145
4955567.8460
4960393.9523
4960219.6156
4960212.3429
4965969.7411
4965853.4163
4965895.9126
4972362.9951
4972227.9966
4972265.9166
4978980.8076
4978867.9166
4978851.8579
4985154.6394
4985095.9420
4985112.4064
4990334.6982
4990250.6810
4990178.3125
4993704.9182
4993732.7594
4993732.8590
4995303.8066
4995307.7186
4995293.4344
4994908.4593
4994964.6437
4994989.8426
4993033.4610
4993077.7269
4993137.7160
4990060.0124
4990080.8414
4990141.3966
4986492.9522
4986522.8485
4986617.3436
4982814.5598
4982819.1584
4982886.9620
4979261.7141
4979259.0966
4979289.4864
4975939.2740
4975938.0770
4975965.9322
4972921.3900
4972903.9200
4972914.6957
4970233.0246
4970216.4284
4970226.2484
4967919.4633
4967894.0597
4967906.9255
4966019.2456
4965989.6960
4966001.1232
4964526.7980
4964497.3670
4964513.1788
4963467.0733
4963434.8918
4963447.9719
4962784.0949
4962759.0943
4962773.8269
4962455.5405
4962431.5006
4962444.1593
4962393.3965
4962376.3884
4962387.2465
4962542.4341
4962529.7600
4962538.6027
4962811.0171
4962806.0509
4962811.4949
4963126.5568
4963131.5124
4963136.6161
4963420.8285
4963434.7315
4963436.9498
4963616.3804
4963649.2466
4963657.3398
4963697.4960
4963736.8360
4963741.9512
5934931.8357
5934895.0014
5934831.0430
5934940.6398
5934906.7404
5934847.6105
5934984.8763
5934960.4646
5934908.9540
5935117.6254
5935090.6025
5935039.7754
5935373.6948
5935348.1299
5935305.5771
5935869.8648
5935830.4560
5935785.5899
5936678.2372
5936634.0516
5936603.1320
5938010.3257
5937933.8443
5937897.5106
5939953.5851
5939872.0975
5939868.6538
5942845.9598
5942703.2913
5942684.3656
5946706.3877
5946580.1631
5946626.7492
5951914.2410
5951706.2117
5951710.6826
5958200.6701
5958059.8345
5958146.5364
5965578.0943
5965380.0401
5965379.1882
5973287.4560
5973155.8444
5973161.8366
5980575.9805
5980490.0933
5980454.2425
5986650.3772
5986573.7317
5986476.8874
5990604.1691
5990645.7288
5990632.4446
5992363.8609
5992375.7030
5992323.8363
5991772.4583
5991848.4961
5991898.0125
5989445.0789
5989476.2562
5989514.6665
5985868.1337
5985898.3273
5985981.9382
5981731.9488
5981748.0549
5981836.7746
5977563.3615
5977554.2054
5977607.7827
5973648.0731
5973628.1697
5973646.7531
5969994.9950
5969993.5632
5970006.1931
5966678.7581
5966657.2381
5966650.8558
5963686.3845
5963665.8908
5963676.0821
5961100.3612
5961073.6618
5961092.4544
5958954.5513
5958921.3489
5958942.6929
5957262.5215
5957229.3817
5957255.8356
5956057.3916
5956017.1916
5956034.6017
5955280.6479
5955250.0912
5955273.5507
5954909.1259
5954875.6948
5954887.4803
5954837.0259
5954815.4183
5954830.8337
5955013.1029
5954992.6914
5954997.2625
5955322.8105
5955316.0262
5955323.0238
5955699.7917
5955698.9442
5955699.0967
5956047.4152
5956062.3403
5956064.8152
5956297.6243
5956325.8529
5956326.3181
5956395.2416
5956429.8735
5956427.1937
6926009.8760
6926009.6856
6925935.8553
6926015.2827
6926014.9982
6925950.6998
6926051.8689
6926053.4719
6925999.6490
6926154.2305
6926153.3005
6926100.7069
6926370.4424
6926369.2226
6926330.5990
6926810.5708
6926791.7278
6926748.4035
6927548.1786
6927522.3989
6927503.1184
6928806.5118
6928739.0904
6928707.0859
6930683.1729
6930603.3934
6930618.8866
6933563.4065
6933409.1831
6933397.3825
6937515.6784
6937367.0241
6937440.4595
6943027.1041
6942796.7317
6942838.2951
6949898.5474
6949744.4380
6949869.2933
6958183.2719
6958019.7100
6958116.8518
6967089.6140
6966993.6793
6966997.9593
6975536.0012
6975540.8376
6975572.0119
6982675.8373
6982647.7881
6982506.7333
6987210.7397
6987294.9155
6987231.3598
6989123.8598
6989154.3928
6989041.6135
6988274.2574
6988319.7579
6988225.2757
6985365.4964
6985375.8645
6985337.3812
6981153.3293
6981110.1997
6981059.3440
6976343.9799
6976331.8684
6976377.3437
6971770.8394
6971734.3526
6971738.3809
6967581.3036
6967546.8317
6967519.0601
6963712.8747
6963697.7320
6963692.6848
6960153.8826
6960111.6067
6960104.9544
6956919.0525
6956880.0713
6956889.3824
6954088.2417
6954053.9453
6954081.9428
6951725.7434
6951683.7530
6951714.1537
6949853.4962
6949813.3508
6949849.2015
6948521.2370
6948478.7479
6948511.0781
6947675.3768
6947641.6963
6947670.6098
6947270.7213
6947242.5744
6947268.0138
6947214.4325
6947193.6060
6947211.2662
6947420.7503
6947410.2262
6947426.0687
6947792.2975
6947790.6381
6947798.8038
6948227.1765
6948239.9570
6948248.7523
6948644.5210
6948667.0204
6948667.6319
6948946.0832
6948982.5152
6948983.1489
6949071.2778
6949108.4952
6949104.2071
7917624.4831
7917661.5955
7917592.0597
7917623.1886
7917657.9595
7917600.8236
7917635.2025
7917668.6921
7917618.5591
7917688.7539
7917722.2087
7917685.0807
7917835.9330
7917863.4743
7917836.4286
7918163.4400
7918183.0186
7918171.0084
7918770.6208
7918770.0507
7918771.6525
7919840.5673
7919811.5409
7919827.4155
7921531.8510
7921464.4399
7921504.6388
7924216.5987
7924077.5761
7924114.2484
7928078.9636
7927908.3466
7927997.3756
7933724.6435
7933436.5045
7933471.2099
7941053.8598
7940850.5390
7940985.9878
7950302.9139
7950017.0494
7950002.1878
7960430.7061
7960309.5678
7960315.8099
7970249.3131
7970212.3453
7970126.7635
7978468.0101
7978459.3856
7978259.6601
7983626.2398
7983763.4686
7983642.0696
7985626.4151
7985668.2913
7985420.4646
7984370.1477
7984444.1459
7984289.2363
7980819.2875
7980785.5578
7980607.8084
7975811.7648
7975733.0458
7975617.6300
7970371.0632
7970295.7301
7970250.1270
7965440.6931
7965326.2608
7965246.4668
7961111.7233
7961042.2868
7961008.6272
7957121.8165
7957110.9682
7957120.0021
7953371.3001
7953324.5921
7953316.1095
7949913.6957
7949876.7788
7949905.6156
7946878.1350
7946838.6251
7946879.7135
7944316.8737
7944264.3424
7944306.1979
7942289.1510
7942238.3384
7942283.6534
7940856.1879
7940799.6079
7940828.6485
7939960.7852
7939918.3771
7939949.5961
7939555.8768
7939515.2831
7939531.7015
7939524.3404
7939499.3030
7939515.9034
7939788.8303
7939770.9548
7939775.6567
7940222.5647
7940221.4523
7940225.4757
7940735.9661
7940744.2178
7940739.5785
7941216.5699
7941241.2224
7941235.2081
7941571.4506
7941606.7977
7941594.3906
7941706.1767
7941749.3051
7941733.4914
8909770.8217
8909843.8149
8909777.8480
8909764.4315
8909828.2796
8909778.6372
8909749.6780
8909806.6857
8909766.7822
8909744.2195
8909798.0279
8909771.4482
8909801.1423
8909847.8729
8909833.6707
8909992.0544
8910025.3889
8910024.0008
8910408.3226
8910422.3158
8910438.0952
8911223.5243
8911198.5921
8911218.3497
8912594.1100
8912527.4696
8912580.7556
8914918.5287
8914760.9265
8914778.1998
8918439.0566
8918229.6643
8918328.5859
8923948.8911
8923603.2619
8923619.4201
8931496.6500
8931243.6103
8931389.9716
8941611.0344
8941343.5110
8941414.4779
8953151.0162
8953073.6597
8953016.6587
8964434.9527
8964528.3470
8964507.2852
8973989.1632
8974022.3017
8973994.3044
8979777.7958
8979903.5438
8979966.8132
8981733.7515
8981696.6402
8981884.6160
8980005.1248
8979936.4067
8980147.1478
8975574.5659
8975392.6926
8975708.2092
8969688.5666
8969387.0651
8969685.0600
8963503.8856
8963303.9035
8963526.1577
8958386.1338
8958224.9391
8958432.6919
8954250.2386
8954199.4656
8954164.2974
8950273.6506
8950283.7514
8950296.2696
8946421.5152
8946365.4503
8946369.4160
8942785.4851
8942729.3038
8942744.0532
8939516.9856
8939466.0171
8939520.6071
8936756.2145
8936685.0259
8936730.7357
8934565.7917
8934502.9802
8934555.0610
8933045.4077
8932982.3571
8933025.6817
8932123.3122
8932076.1980
8932109.0118
8931729.4203
8931695.0699
8931722.5905
8931754.7365
8931731.7157
8931745.8625
8932082.3112
8932075.6496
8932087.9827
8932603.5026
8932606.3574
8932608.0032
8933192.3354
8933212.3068
8933213.6371
8933753.3827
8933781.4406
8933771.5496
8934160.8378
8934203.6335
8934192.3741
8934328.9111
8934372.5968
8934353.9146
9902452.3645
9902549.0811
9902498.6489
9902433.4401
9902522.3003
9902488.0548
9902386.8881
9902466.0692
9902439.9361
9902316.0776
9902395.1036
9902389.1400
9902276.1885
9902341.9335
9902345.3280
9902300.8093
9902366.0740
9902397.4168
9902501.8367
9902536.9052
9902576.2712
9902976.8488
9903000.9317
9903075.9765
9903939.5053
9903900.9158
9903983.3441
9905698.7237
9905602.0133
9905704.0460
9908647.1386
9908436.9688
9908547.6436
9913711.0623
9913335.3988
9913358.3623
9921242.7761
9920884.3793
9920955.6670
9932236.4684
9931723.2156
9931509.2676
9945248.8578
9945080.4751
9944938.0494
9958267.9290
9958234.9751
9958212.1871
9969072.3609
9969378.8597
9969871.0953
9975420.4959
9975855.4717
9976793.1744
9977098.3747
9977589.8026
9978838.9107
9974682.5006
9975249.7883
9976711.1605
9969238.5482
9969587.9050
9971035.9747
9962324.3497
9962570.6457
9963829.3136
9955596.9137
9955585.4739
9956292.0640
9950597.3081
9950609.5987
9950932.5507
9947069.0270
9947048.8062
9947037.5681
9943310.1778
9943346.8595
9943380.8719
9939410.6896
9939355.7692
9939335.2192
9935542.3794
9935478.0158
9935510.2786
9932024.8020
9931963.8234
9932032.1180
9929036.6267
9928945.5682
9929002.0520
9926691.8870
9926617.1815
9926685.7567
9925102.0566
9925027.8822
9925065.7335
9924171.0000
9924118.4812
9924151.2198
9923824.0200
9923779.8317
9923793.7030
9923915.6925
9923890.4940
9923899.6304
9924336.3887
9924321.8280
9924319.1084
9924942.3936
9924944.8413
9924939.2606
9925626.3940
9925637.0360
9925622.0850
9926257.1035
9926284.9551
9926268.5013
9926722.5699
9926760.3258
9926734.9401
9926898.7500
9926945.3131
9926916.4109
10895645.5772
10895763.8496
10895725.8291
10895622.9356
10895727.0512
10895707.6942
10895547.8366
10895640.7676
10895630.1088
10895419.4351
10895508.3492
10895519.1414
10895283.6620
10895361.9613
10895381.4881
10895156.1948
10895230.0828
10895278.1485
10895129.4422
10895181.3243
10895235.0788
10895267.0519
10895302.4864
10895390.7803
10895760.4641
10895746.7592
10895841.3221
10896854.4632
10896769.0810
10896856.1785
10898993.3691
10898767.4544
10898909.9778
10903190.5279
10902729.1126
10902676.0247
10910186.4613
10909649.3892
10909815.5690
10921862.0702
10921231.9692
10921143.3368
10936419.9889
10936220.0675
10935559.2369
10951211.9538
10951551.7024
10951283.5264
10963457.0290
10964432.5085
10963558.2634
10970133.5607
10971350.0651
10970788.6546
10971731.7599
10973373.8769
10972819.1641
10968698.4143
10970438.6123
10970080.4433
10962264.2851
10963728.2558
10963809.5477
10954277.4199
10955236.4431
10954902.2305
10947013.4347
10947389.9502
10947589.0074
10942710.6671
10943074.8251
10943131.0370
10940037.7855
10940074.4410
10939930.0705
10936553.3152
10936579.7544
10936481.1351
10932502.0257
10932399.2780
10932401.1182
10928357.4607
10928225.1793
10928235.3062
10924440.7682
10924357.6759
10924446.5361
10921176.3825
10921060.6598
10921120.6519
10918656.5507
10918583.4250
10918638.9215
10917009.0775
10916943.6819
10916984.8357
10916103.4963
10916055.8765
10916077.4968
10915816.3938
10915788.5581
10915803.1531
10916011.8161
10915992.9729
10915993.9370
10916526.3366
10916526.4813
10916527.8330
10917238.9200
10917245.2505
10917237.1681
10918006.7964
10918030.1168
10918022.9825
10918722.4861
10918753.9688
10918735.7418
10919241.5054
10919288.6006
10919268.7127
10919453.7327
10919502.6167
10919474.3898
11889346.1339
11889472.2254
11889454.1883
11889314.2969
11889428.1693
11889425.5452
11889217.9908
11889319.7708
11889327.3316
11889044.7925
11889145.5865
11889174.5919
11888837.4606
11888924.5006
11888962.5135
11888575.9018
11888670.2605
11888742.5324
11888359.0795
11888426.7129
11888502.7555
11888164.8913
11888251.8683
11888386.2251
11888215.5707
11888250.0365
11888383.0467
11888550.4650
11888594.1431
11888842.2589
11889705.4578
11889587.1493
11889857.5389
11892590.4161
11892253.4770
11892529.9816
11898538.0551
11897915.6070
11898160.6700
11910541.6396
11909545.0850
11908826.7858
11926546.1921
11925779.3011
11924063.4704
11943190.6366
11943264.4568
11940255.1878
11956552.8849
11956138.2337
11951267.1607
11963497.9191
11963322.8245
11958434.9677
11965569.8072
11965548.2122
11960373.1990
11962228.6193
11962494.8130
11957974.5720
11954922.2132
11955071.7755
11951444.3403
11945953.0423
11945213.8865
11942738.9745
11938580.9657
11938421.4448
11937784.2689
11935404.6448
11935226.1842
11934593.7455
11933420.6897
11933364.4182
11933047.4113
11930170.9666
11930155.0768
11930087.7249
11925825.9975
11925734.8506
11925759.1407
11921166.8370
11921060.5351
11921128.4471
11916754.3161
11916667.8816
11916769.8337
11913142.0426
11913006.8463
11913048.4113
11910473.3366
11910384.5063
11910433.4222
11908807.1933
11908727.6640
11908731.8297
11907950.6641
11907897.6471
11907894.8062
11907767.3286
11907724.3057
11907709.4134
11908070.7652
11908050.5955
11908040.7179