# vtk DataFile Version 2.0
VTK from Matlab
ASCII

DATASET UNSTRUCTURED_GRID
POINTS 1845 float
0.000 0.000 0.000
0.000 0.000 0.250
0.000 0.000 0.500
0.000 0.000 0.750
0.000 0.000 1.000
0.000 0.250 0.000
0.000 0.250 0.250
0.000 0.250 0.500
0.000 0.250 0.750
0.000 0.250 1.000
0.000 0.500 0.000
0.000 0.500 0.250
0.000 0.500 0.500
0.000 0.500 0.750
0.000 0.500 1.000
0.000 0.750 0.000
0.000 0.750 0.250
0.000 0.750 0.500
0.000 0.750 0.750
0.000 0.750 1.000
0.000 1.000 0.000
0.000 1.000 0.250
0.000 1.000 0.500
0.000 1.000 0.750
0.000 1.000 1.000
0.000 1.250 0.000
0.000 1.250 0.250
0.000 1.250 0.500
0.000 1.250 0.750
0.000 1.250 1.000
0.000 1.500 0.000
0.000 1.500 0.250
0.000 1.500 0.500
0.000 1.500 0.750
0.000 1.500 1.000
0.000 1.750 0.000
0.000 1.750 0.250
0.000 1.750 0.500
0.000 1.750 0.750
0.000 1.750 1.000
0.000 2.000 0.000
0.000 2.000 0.250
0.000 2.000 0.500
0.000 2.000 0.750
0.000 2.000 1.000
0.250 0.000 0.000
0.250 0.000 0.250
0.250 0.000 0.500
0.250 0.000 0.750
0.250 0.000 1.000
0.250 0.250 0.000
0.250 0.250 0.250
0.250 0.250 0.500
0.250 0.250 0.750
0.250 0.250 1.000
0.250 0.500 0.000
0.250 0.500 0.250
0.250 0.500 0.500
0.250 0.500 0.750
0.250 0.500 1.000
0.250 0.750 0.000
0.250 0.750 0.250
0.250 0.750 0.500
0.250 0.750 0.750
0.250 0.750 1.000
0.250 1.000 0.000
0.250 1.000 0.250
0.250 1.000 0.500
0.250 1.000 0.750
0.250 1.000 1.000
0.250 1.250 0.000
0.250 1.250 0.250
0.250 1.250 0.500
0.250 1.250 0.750
0.250 1.250 1.000
0.250 1.500 0.000
0.250 1.500 0.250
0.250 1.500 0.500
0.250 1.500 0.750
0.250 1.500 1.000
0.250 1.750 0.000
0.250 1.750 0.250
0.250 1.750 0.500
0.250 1.750 0.750
0.250 1.750 1.000
0.250 2.000 0.000
0.250 2.000 0.250
0.250 2.000 0.500
0.250 2.000 0.750
0.250 2.000 1.000
0.500 0.000 0.000
0.500 0.000 0.250
0.500 0.000 0.500
0.500 0.000 0.750
0.500 0.000 1.000
0.500 0.250 0.000
0.500 0.250 0.250
0.500 0.250 0.500
0.500 0.250 0.750
0.500 0.250 1.000
0.500 0.500 0.000
0.500 0.500 0.250
0.500 0.500 0.500
0.500 0.500 0.750
0.500 0.500 1.000
0.500 0.750 0.000
0.500 0.750 0.250
0.500 0.750 0.500
0.500 0.750 0.750
0.500 0.750 1.000
0.500 1.000 0.000
0.500 1.000 0.250
0.500 1.000 0.500
0.500 1.000 0.750
0.500 1.000 1.000
0.500 1.250 0.000
0.500 1.250 0.250
0.500 1.250 0.500
0.500 1.250 0.750
0.500 1.250 1.000
0.500 1.500 0.000
0.500 1.500 0.250
0.500 1.500 0.500
0.500 1.500 0.750
0.500 1.500 1.000
0.500 1.750 0.000
0.500 1.750 0.250
0.500 1.750 0.500
0.500 1.750 0.750
0.500 1.750 1.000
0.500 2.000 0.000
0.500 2.000 0.250
0.500 2.000 0.500
0.500 2.000 0.750
0.500 2.000 1.000
0.750 0.000 0.000
0.750 0.000 0.250
0.750 0.000 0.500
0.750 0.000 0.750
0.750 0.000 1.000
0.750 0.250 0.000
0.750 0.250 0.250
0.750 0.250 0.500
0.750 0.250 0.750
0.750 0.250 1.000
0.750 0.500 0.000
0.750 0.500 0.250
0.750 0.500 0.500
0.750 0.500 0.750
0.750 0.500 1.000
0.750 0.750 0.000
0.750 0.750 0.250
0.750 0.750 0.500
0.750 0.750 0.750
0.750 0.750 1.000
0.750 1.000 0.000
0.750 1.000 0.250
0.750 1.000 0.500
0.750 1.000 0.750
0.750 1.000 1.000
0.750 1.250 0.000
0.750 1.250 0.250
0.750 1.250 0.500
0.750 1.250 0.750
0.750 1.250 1.000
0.750 1.500 0.000
0.750 1.500 0.250
0.750 1.500 0.500
0.750 1.500 0.750
0.750 1.500 1.000
0.750 1.750 0.000
0.750 1.750 0.250
0.750 1.750 0.500
0.750 1.750 0.750
0.750 1.750 1.000
0.750 2.000 0.000
0.750 2.000 0.250
0.750 2.000 0.500
0.750 2.000 0.750
0.750 2.000 1.000
1.000 0.000 0.000
1.000 0.000 0.250
1.000 0.000 0.500
1.000 0.000 0.750
1.000 0.000 1.000
1.000 0.250 0.000
1.000 0.250 0.250
1.000 0.250 0.500
1.000 0.250 0.750
1.000 0.250 1.000
1.000 0.500 0.000
1.000 0.500 0.250
1.000 0.500 0.500
1.000 0.500 0.750
1.000 0.500 1.000
1.000 0.750 0.000
1.000 0.750 0.250
1.000 0.750 0.500
1.000 0.750 0.750
1.000 0.750 1.000
1.000 1.000 0.000
1.000 1.000 0.250
1.000 1.000 0.500
1.000 1.000 0.750
1.000 1.000 1.000
1.000 1.250 0.000
1.000 1.250 0.250
1.000 1.250 0.500
1.000 1.250 0.750
1.000 1.250 1.000
1.000 1.500 0.000
1.000 1.500 0.250
1.000 1.500 0.500
1.000 1.500 0.750
1.000 1.500 1.000
1.000 1.750 0.000
1.000 1.750 0.250
1.000 1.750 0.500
1.000 1.750 0.750
1.000 1.750 1.000
1.000 2.000 0.000
1.000 2.000 0.250
1.000 2.000 0.500
1.000 2.000 0.750
1.000 2.000 1.000
1.250 0.000 0.000
1.250 0.000 0.250
1.250 0.000 0.500
1.250 0.000 0.750
1.250 0.000 1.000
1.250 0.250 0.000
1.250 0.250 0.250
1.250 0.250 0.500
1.250 0.250 0.750
1.250 0.250 1.000
1.250 0.500 0.000
1.250 0.500 0.250
1.250 0.500 0.500
1.250 0.500 0.750
1.250 0.500 1.000
1.250 0.750 0.000
1.250 0.750 0.250
1.250 0.750 0.500
1.250 0.750 0.750
1.250 0.750 1.000
1.250 1.000 0.000
1.250 1.000 0.250
1.250 1.000 0.500
1.250 1.000 0.750
1.250 1.000 1.000
1.250 1.250 0.000
1.250 1.250 0.250
1.250 1.250 0.500
1.250 1.250 0.750
1.250 1.250 1.000
1.250 1.500 0.000
1.250 1.500 0.250
1.250 1.500 0.500
1.250 1.500 0.750
1.250 1.500 1.000
1.250 1.750 0.000
1.250 1.750 0.250
1.250 1.750 0.500
1.250 1.750 0.750
1.250 1.750 1.000
1.250 2.000 0.000
1.250 2.000 0.250
1.250 2.000 0.500
1.250 2.000 0.750
1.250 2.000 1.000
1.500 0.000 0.000
1.500 0.000 0.250
1.500 0.000 0.500
1.500 0.000 0.750
1.500 0.000 1.000
1.500 0.250 0.000
1.500 0.250 0.250
1.500 0.250 0.500
1.500 0.250 0.750
1.500 0.250 1.000
1.500 0.500 0.000
1.500 0.500 0.250
1.500 0.500 0.500
1.500 0.500 0.750
1.500 0.500 1.000
1.500 0.750 0.000
1.500 0.750 0.250
1.500 0.750 0.500
1.500 0.750 0.750
1.500 0.750 1.000
1.500 1.000 0.000
1.500 1.000 0.250
1.500 1.000 0.500
1.500 1.000 0.750
1.500 1.000 1.000
1.500 1.250 0.000
1.500 1.250 0.250
1.500 1.250 0.500
1.500 1.250 0.750
1.500 1.250 1.000
1.500 1.500 0.000
1.500 1.500 0.250
1.500 1.500 0.500
1.500 1.500 0.750
1.500 1.500 1.000
1.500 1.750 0.000
1.500 1.750 0.250
1.500 1.750 0.500
1.500 1.750 0.750
1.500 1.750 1.000
1.500 2.000 0.000
1.500 2.000 0.250
1.500 2.000 0.500
1.500 2.000 0.750
1.500 2.000 1.000
1.750 0.000 0.000
1.750 0.000 0.250
1.750 0.000 0.500
1.750 0.000 0.750
1.750 0.000 1.000
1.750 0.250 0.000
1.750 0.250 0.250
1.750 0.250 0.500
1.750 0.250 0.750
1.750 0.250 1.000
1.750 0.500 0.000
1.750 0.500 0.250
1.750 0.500 0.500
1.750 0.500 0.750
1.750 0.500 1.000
1.750 0.750 0.000
1.750 0.750 0.250
1.750 0.750 0.500
1.750 0.750 0.750
1.750 0.750 1.000
1.750 1.000 0.000
1.750 1.000 0.250
1.750 1.000 0.500
1.750 1.000 0.750
1.750 1.000 1.000
1.750 1.250 0.000
1.750 1.250 0.250
1.750 1.250 0.500
1.750 1.250 0.750
1.750 1.250 1.000
1.750 1.500 0.000
1.750 1.500 0.250
1.750 1.500 0.500
1.750 1.500 0.750
1.750 1.500 1.000
1.750 1.750 0.000
1.750 1.750 0.250
1.750 1.750 0.500
1.750 1.750 0.750
1.750 1.750 1.000
1.750 2.000 0.000
1.750 2.000 0.250
1.750 2.000 0.500
1.750 2.000 0.750
1.750 2.000 1.000
2.000 0.000 0.000
2.000 0.000 0.250
2.000 0.000 0.500
2.000 0.000 0.750
2.000 0.000 1.000
2.000 0.250 0.000
2.000 0.250 0.250
2.000 0.250 0.500
2.000 0.250 0.750
2.000 0.250 1.000
2.000 0.500 0.000
2.000 0.500 0.250
2.000 0.500 0.500
2.000 0.500 0.750
2.000 0.500 1.000
2.000 0.750 0.000
2.000 0.750 0.250
2.000 0.750 0.500
2.000 0.750 0.750
2.000 0.750 1.000
2.000 1.000 0.000
2.000 1.000 0.250
2.000 1.000 0.500
2.000 1.000 0.750
2.000 1.000 1.000
2.000 1.250 0.000
2.000 1.250 0.250
2.000 1.250 0.500
2.000 1.250 0.750
2.000 1.250 1.000
2.000 1.500 0.000
2.000 1.500 0.250
2.000 1.500 0.500
2.000 1.500 0.750
2.000 1.500 1.000
2.000 1.750 0.000
2.000 1.750 0.250
2.000 1.750 0.500
2.000 1.750 0.750
2.000 1.750 1.000
2.000 2.000 0.000
2.000 2.000 0.250
2.000 2.000 0.500
2.000 2.000 0.750
2.000 2.000 1.000
2.250 0.000 0.000
2.250 0.000 0.250
2.250 0.000 0.500
2.250 0.000 0.750
2.250 0.000 1.000
2.250 0.250 0.000
2.250 0.250 0.250
2.250 0.250 0.500
2.250 0.250 0.750
2.250 0.250 1.000
2.250 0.500 0.000
2.250 0.500 0.250
2.250 0.500 0.500
2.250 0.500 0.750
2.250 0.500 1.000
2.250 0.750 0.000
2.250 0.750 0.250
2.250 0.750 0.500
2.250 0.750 0.750
2.250 0.750 1.000
2.250 1.000 0.000
2.250 1.000 0.250
2.250 1.000 0.500
2.250 1.000 0.750
2.250 1.000 1.000
2.250 1.250 0.000
2.250 1.250 0.250
2.250 1.250 0.500
2.250 1.250 0.750
2.250 1.250 1.000
2.250 1.500 0.000
2.250 1.500 0.250
2.250 1.500 0.500
2.250 1.500 0.750
2.250 1.500 1.000
2.250 1.750 0.000
2.250 1.750 0.250
2.250 1.750 0.500
2.250 1.750 0.750
2.250 1.750 1.000
2.250 2.000 0.000
2.250 2.000 0.250
2.250 2.000 0.500
2.250 2.000 0.750
2.250 2.000 1.000
2.500 0.000 0.000
2.500 0.000 0.250
2.500 0.000 0.500
2.500 0.000 0.750
2.500 0.000 1.000
2.500 0.250 0.000
2.500 0.250 0.250
2.500 0.250 0.500
2.500 0.250 0.750
2.500 0.250 1.000
2.500 0.500 0.000
2.500 0.500 0.250
2.500 0.500 0.500
2.500 0.500 0.750
2.500 0.500 1.000
2.500 0.750 0.000
2.500 0.750 0.250
2.500 0.750 0.500
2.500 0.750 0.750
2.500 0.750 1.000
2.500 1.000 0.000
2.500 1.000 0.250
2.500 1.000 0.500
2.500 1.000 0.750
2.500 1.000 1.000
2.500 1.250 0.000
2.500 1.250 0.250
2.500 1.250 0.500
2.500 1.250 0.750
2.500 1.250 1.000
2.500 1.500 0.000
2.500 1.500 0.250
2.500 1.500 0.500
2.500 1.500 0.750
2.500 1.500 1.000
2.500 1.750 0.000
2.500 1.750 0.250
2.500 1.750 0.500
2.500 1.750 0.750
2.500 1.750 1.000
2.500 2.000 0.000
2.500 2.000 0.250
2.500 2.000 0.500
2.500 2.000 0.750
2.500 2.000 1.000
2.750 0.000 0.000
2.750 0.000 0.250
2.750 0.000 0.500
2.750 0.000 0.750
2.750 0.000 1.000
2.750 0.250 0.000
2.750 0.250 0.250
2.750 0.250 0.500
2.750 0.250 0.750
2.750 0.250 1.000
2.750 0.500 0.000
2.750 0.500 0.250
2.750 0.500 0.500
2.750 0.500 0.750
2.750 0.500 1.000
2.750 0.750 0.000
2.750 0.750 0.250
2.750 0.750 0.500
2.750 0.750 0.750
2.750 0.750 1.000
2.750 1.000 0.000
2.750 1.000 0.250
2.750 1.000 0.500
2.750 1.000 0.750
2.750 1.000 1.000
2.750 1.250 0.000
2.750 1.250 0.250
2.750 1.250 0.500
2.750 1.250 0.750
2.750 1.250 1.000
2.750 1.500 0.000
2.750 1.500 0.250
2.750 1.500 0.500
2.750 1.500 0.750
2.750 1.500 1.000
2.750 1.750 0.000
2.750 1.750 0.250
2.750 1.750 0.500
2.750 1.750 0.750
2.750 1.750 1.000
2.750 2.000 0.000
2.750 2.000 0.250
2.750 2.000 0.500
2.750 2.000 0.750
2.750 2.000 1.000
3.000 0.000 0.000
3.000 0.000 0.250
3.000 0.000 0.500
3.000 0.000 0.750
3.000 0.000 1.000
3.000 0.250 0.000
3.000 0.250 0.250
3.000 0.250 0.500
3.000 0.250 0.750
3.000 0.250 1.000
[...]
POINT_DATA 1845
SCALARS Desplazamiento float
LOOKUP_TABLE default
0.0000
0.0000
0.5590
